LAMMPS (23 Jun 2022 - Update 4)
OMP_NUM_THREADS environment is not set. Defaulting to 1 thread. (src/src/comm.cpp:98)
  using 1 OpenMP thread(s) per MPI task
Lattice spacing in x,y,z = 4.04525 4.04525 4.04525
Created orthogonal box = (0 0 0) to (8.0905 8.0905 8.0905)
  1 by 1 by 2 MPI processor grid
Created 32 atoms
  using lattice units in orthogonal box = (0 0 0) to (8.0905 8.0905 8.0905)
  create_atoms CPU = 0.000 seconds
Reading eam/alloy potential file ./Al_mm.eam.fs with DATE: 2007-06-11
Temp                     Press                     Vol                     Etotal
Neighbor list info ...
  update every 1 steps, delay 10 steps, check yes
  max neighbors/atom: 2000, page size: 100000
  master list distance cutoff = 8.5
  ghost atom cutoff = 8.5
  binsize = 4.25, bins = 2 2 2
  1 neighbor lists, perpetual/occasional/extra = 1 0 0
  (1) pair eam/alloy, perpetual
      attributes: half, newton on
      pair build: half/bin/atomonly/newton
      stencil: half/bin/3d
      bin: standard
Setting up Verlet run ...
  Unit style    : metal
  Current step  : 0
  Time step     : 0.001
Per MPI rank memory allocation (min/avg/max) = 3.346 | 3.346 | 3.346 Mbytes
   Step          Time           Temp          PotEng         KinEng         TotEng        c_mytemp      c_mypress        Volume    
         0   0              600           -109.14102      2.4042387     -106.73678      600            4854.6303      529.57331    
      1000   1              297.43987     -107.9281       1.1918607     -106.73624      297.43987      16140.891      529.57331    
      2000   2              328.31007     -108.05193      1.3155596     -106.73637      328.31007      15910.49       529.57331    
      3000   3              323.22736     -108.03156      1.2951929     -106.73636      323.22736      15720.917      529.57331    
      4000   4              271.89734     -107.82573      1.0895102     -106.73622      271.89734      16892.09       529.57331    
      5000   5              350.10661     -108.13931      1.4028998     -106.73641      350.10661      15163.968      529.57331    
Loop time of 0.352118 on 2 procs for 5000 steps with 32 atoms

Performance: 1226.862 ns/day, 0.020 hours/ns, 14199.790 timesteps/s
98.6% CPU use with 2 MPI tasks x 1 OpenMP threads

MPI task timing breakdown:
Section |  min time  |  avg time  |  max time  |%varavg| %total
---------------------------------------------------------------
Pair    | 0.2257     | 0.24298    | 0.26026    |   3.5 | 69.01
Neigh   | 0          | 0          | 0          |   0.0 |  0.00
Comm    | 0.04749    | 0.065102   | 0.082714   |   6.9 | 18.49
Output  | 3.7821e-05 | 5.4703e-05 | 7.1585e-05 |   0.0 |  0.02
Modify  | 0.036619   | 0.038081   | 0.039542   |   0.7 | 10.81
Other   |            | 0.005899   |            |       |  1.68

Nlocal:             16 ave          16 max          16 min
Histogram: 2 0 0 0 0 0 0 0 0 0
Nghost:            914 ave         914 max         914 min
Histogram: 2 0 0 0 0 0 0 0 0 0
Neighs:           1120 ave        1314 max         926 min
Histogram: 1 0 0 0 0 0 0 0 0 1

Total # of neighbors = 2240
Ave neighs/atom = 70
Neighbor list builds = 0
Dangerous builds = 0
Setting up Verlet run ...
  Unit style    : metal
  Current step  : 5000
  Time step     : 0.001
Per MPI rank memory allocation (min/avg/max) = 3.605 | 3.605 | 3.605 Mbytes
   Step          Time           Temp          PotEng         KinEng         TotEng        c_mytemp      c_mypress        Volume    
      5000   5              350.10661     -108.13931      1.4028998     -106.73641      350.10661      15163.968      529.57331    
      6000   6              607.27791     -93.816786      2.4334018     -91.383384      607.27791      499334.12      402.46217    
      7000   7              680.35358     -93.458378      2.7262207     -90.732157      680.35358      543704.18      400.22426    
      8000   8              566.53331     -93.46477       2.2701355     -91.194635      566.53331      470843.8       401.5123     
      9000   9              637.29281     -93.286297      2.5536734     -90.732623      637.29281      575180.7       399.76081    
     10000   10             664.52411     -93.654517      2.662791      -90.991726      664.52411      502879.28      400.78284    
Loop time of 0.457516 on 2 procs for 5000 steps with 32 atoms

Performance: 944.229 ns/day, 0.025 hours/ns, 10928.572 timesteps/s
98.1% CPU use with 2 MPI tasks x 1 OpenMP threads

MPI task timing breakdown:
Section |  min time  |  avg time  |  max time  |%varavg| %total
---------------------------------------------------------------
Pair    | 0.28035    | 0.30841    | 0.33646    |   5.1 | 67.41
Neigh   | 4.0066e-05 | 4.6523e-05 | 5.298e-05  |   0.0 |  0.01
Comm    | 0.049777   | 0.078468   | 0.10716    |  10.2 | 17.15
Output  | 8.4309e-05 | 0.00031825 | 0.00055219 |   0.0 |  0.07
Modify  | 0.064762   | 0.065758   | 0.066755   |   0.4 | 14.37
Other   |            | 0.004519   |            |       |  0.99

Nlocal:             16 ave          16 max          16 min
Histogram: 2 0 0 0 0 0 0 0 0 0
Nghost:            914 ave         914 max         914 min
Histogram: 2 0 0 0 0 0 0 0 0 0
Neighs:           1542 ave        1796 max        1288 min
Histogram: 1 0 0 0 0 0 0 0 0 1

Total # of neighbors = 3084
Ave neighs/atom = 96.375
Neighbor list builds = 1
Dangerous builds = 0
 
*******LOOP # 1*********
 
Setting up Verlet run ...
  Unit style    : metal
  Current step  : 0
  Time step     : 0.001
Per MPI rank memory allocation (min/avg/max) = 3.605 | 3.605 | 3.605 Mbytes
   Step          Time           Temp          PotEng         KinEng         TotEng        c_mytemp      c_mypress        Volume    
         0   0              664.52411     -93.654517      2.662791      -90.991726      664.52411      502879.28      400.78284    
      1000   1              891.31866     -92.959772      3.5715714     -89.388201      891.31866      535165.43      400.14585    
      2000   2              1030.1503     -93.672963      4.1278787     -89.545085      1030.1503      501988.31      400.97818    
      3000   3              1038.6497     -93.602283      4.1619365     -89.440347      1038.6497      514145.81      400.78787    
      4000   4              962.02366     -93.244153      3.8548908     -89.389262      962.02366      548122.02      400.37304    
      5000   5              820.17119     -93.130866      3.2864788     -89.844387      820.17119      505603.75      401.73798    
      6000   6              871.9279      -93.253514      3.4938713     -89.759643      871.9279       493365.06      401.63887    
      7000   7              973.2288      -93.878474      3.8997906     -89.978684      973.2288       432276.15      402.16005    
      8000   8              863.12996     -93.233101      3.4586174     -89.774484      863.12996      530778.44      401.58431    
      9000   9              883.25119     -92.662072      3.5392445     -89.122828      883.25119      595205.46      399.56725    
     10000   10             937.45109     -93.185477      3.756427      -89.42905       937.45109      565229.38      400.32004    
Loop time of 0.945586 on 2 procs for 10000 steps with 32 atoms

Performance: 913.719 ns/day, 0.026 hours/ns, 10575.450 timesteps/s
97.6% CPU use with 2 MPI tasks x 1 OpenMP threads

MPI task timing breakdown:
Section |  min time  |  avg time  |  max time  |%varavg| %total
---------------------------------------------------------------
Pair    | 0.66906    | 0.67451    | 0.67996    |   0.7 | 71.33
Neigh   | 0          | 0          | 0          |   0.0 |  0.00
Comm    | 0.11341    | 0.11734    | 0.12127    |   1.1 | 12.41
Output  | 7.8989e-05 | 0.000117   | 0.00015501 |   0.0 |  0.01
Modify  | 0.14284    | 0.14356    | 0.14429    |   0.2 | 15.18
Other   |            | 0.01005    |            |       |  1.06

Nlocal:             16 ave          18 max          14 min
Histogram: 1 0 0 0 0 0 0 0 0 1
Nghost:            914 ave         916 max         912 min
Histogram: 1 0 0 0 0 0 0 0 0 1
Neighs:           1618 ave        1649 max        1587 min
Histogram: 1 0 0 0 0 0 0 0 0 1

Total # of neighbors = 3236
Ave neighs/atom = 101.125
Neighbor list builds = 0
Dangerous builds = 0
Setting up Verlet run ...
  Unit style    : metal
  Current step  : 0
  Time step     : 0.001
Per MPI rank memory allocation (min/avg/max) = 3.605 | 3.605 | 3.605 Mbytes
   Step          Time           Temp          PotEng         KinEng         TotEng        c_mytemp      c_mypress        Volume    
         0   0              937.45109     -93.185477      3.756427      -89.42905       937.45109      565229.38      400.32004    
      1000   1              867.05994     -93.145236      3.4743651     -89.670871      867.05994      509041.41      401.39841    
      2000   2              917.54989     -93.34633       3.6766816     -89.669649      917.54989      505063.9       401.07739    
      3000   3              1122.5154     -93.756209      4.4979917     -89.258217      1122.5154      542910.73      400.00397    
      4000   4              966.1066      -93.427073      3.8712515     -89.555821      966.1066       505290.69      400.76671    
      5000   5              933.42995     -93.163361      3.740314      -89.423047      933.42995      548171.6       400.25577    
      6000   6              883.23917     -92.762243      3.5391963     -89.223046      883.23917      569800         400.01768    
      7000   7              998.17056     -93.926408      3.9997338     -89.926674      998.17056      448074.62      401.89024    
      8000   8              939.17868     -93.912075      3.7633495     -90.148725      939.17868      452738.31      402.43264    
      9000   9              1048.2694     -94.290073      4.200483      -90.08959       1048.2694      396790.42      402.64922    
     10000   10             879.21975     -92.966736      3.5230902     -89.443645      879.21975      546536.31      400.25619    
Loop time of 1.14864 on 2 procs for 10000 steps with 32 atoms

Performance: 752.195 ns/day, 0.032 hours/ns, 8705.962 timesteps/s
98.0% CPU use with 2 MPI tasks x 1 OpenMP threads

MPI task timing breakdown:
Section |  min time  |  avg time  |  max time  |%varavg| %total
---------------------------------------------------------------
Pair    | 0.59251    | 0.7069     | 0.8213     |  13.6 | 61.54
Neigh   | 4.3231e-05 | 5.5725e-05 | 6.8219e-05 |   0.0 |  0.00
Comm    | 0.11145    | 0.22537    | 0.33928    |  24.0 | 19.62
Output  | 0.0001018  | 0.00015279 | 0.00020378 |   0.0 |  0.01
Modify  | 0.20627    | 0.20627    | 0.20628    |   0.0 | 17.96
Other   |            | 0.009887   |            |       |  0.86

Nlocal:             16 ave          18 max          14 min
Histogram: 1 0 0 0 0 0 0 0 0 1
Nghost:            914 ave         916 max         912 min
Histogram: 1 0 0 0 0 0 0 0 0 1
Neighs:           1629 ave        2202 max        1056 min
Histogram: 1 0 0 0 0 0 0 0 0 1

Total # of neighbors = 3258
Ave neighs/atom = 101.8125
Neighbor list builds = 1
Dangerous builds = 0
899.008508455763 499714.121552362 401.130424835074 -2.80165669532444
 
*******LOOP # 2*********
 
Setting up Verlet run ...
  Unit style    : metal
  Current step  : 0
  Time step     : 0.001
Per MPI rank memory allocation (min/avg/max) = 3.605 | 3.605 | 3.605 Mbytes
   Step          Time           Temp          PotEng         KinEng         TotEng        c_mytemp      c_mypress        Volume    
         0   0              879.21975     -92.966736      3.5230902     -89.443645      879.21975      546536.31      400.25619    
      1000   1              837.03356     -92.949395      3.3540475     -89.595348      837.03356      488195.99      401.71297    
      2000   2              773.81223     -93.127887      3.1007155     -90.027171      773.81223      437941.16      402.85526    
      3000   3              951.92654     -93.662347      3.814431      -89.847916      951.92654      439081.35      402.42243    
      4000   4              1002.4522     -93.339161      4.0168908     -89.32227       1002.4522      474097.07      400.96714    
      5000   5              894.42748     -93.31342       3.5840286     -89.729392      894.42748      481676.25      402.07232    
      6000   6              699.1576      -92.801394      2.8015696     -89.999824      699.1576       451508.51      402.76846    
      7000   7              920.69987     -93.251377      3.6893037     -89.562073      920.69987      510198.93      401.31528    
      8000   8              853.77122     -93.065548      3.4211164     -89.644432      853.77122      469896.59      401.69282    
      9000   9              879.47735     -92.898641      3.5241225     -89.374518      879.47735      505541.11      401.29513    
     10000   10             976.45347     -93.602417      3.912712      -89.689704      976.45347      431073.61      401.81851    
Loop time of 0.94167 on 2 procs for 10000 steps with 32 atoms

Performance: 917.519 ns/day, 0.026 hours/ns, 10619.433 timesteps/s
97.7% CPU use with 2 MPI tasks x 1 OpenMP threads

MPI task timing breakdown:
Section |  min time  |  avg time  |  max time  |%varavg| %total
---------------------------------------------------------------
Pair    | 0.63538    | 0.6597     | 0.68403    |   3.0 | 70.06
Neigh   | 9.9978e-05 | 0.00010917 | 0.00011836 |   0.0 |  0.01
Comm    | 0.10769    | 0.13378    | 0.15988    |   7.1 | 14.21
Output  | 0.00018505 | 0.00046489 | 0.00074474 |   0.0 |  0.05
Modify  | 0.13691    | 0.13793    | 0.13895    |   0.3 | 14.65
Other   |            | 0.00968    |            |       |  1.03

Nlocal:             16 ave          18 max          14 min
Histogram: 1 0 0 0 0 0 0 0 0 1
Nghost:            914 ave         916 max         912 min
Histogram: 1 0 0 0 0 0 0 0 0 1
Neighs:         1624.5 ave        1742 max        1507 min
Histogram: 1 0 0 0 0 0 0 0 0 1

Total # of neighbors = 3249
Ave neighs/atom = 101.53125
Neighbor list builds = 2
Dangerous builds = 0
Setting up Verlet run ...
  Unit style    : metal
  Current step  : 0
  Time step     : 0.001
Per MPI rank memory allocation (min/avg/max) = 3.605 | 3.605 | 3.605 Mbytes
   Step          Time           Temp          PotEng         KinEng         TotEng        c_mytemp      c_mypress        Volume    
         0   0              976.45347     -93.602417      3.912712      -89.689704      976.45347      431073.61      401.81851    
      1000   1              907.52697     -93.367181      3.6365191     -89.730661      907.52697      441838.23      401.89315    
      2000   2              972.58949     -93.669722      3.8972288     -89.772493      972.58949      459569.74      402.1296     
      3000   3              876.24926     -92.562499      3.5111873     -89.051312      876.24926      570184.07      399.70768    
      4000   4              861.04035     -93.067523      3.4502442     -89.617278      861.04035      531396.58      401.63655    
      5000   5              937.29141     -93.956948      3.7557871     -90.201161      937.29141      414378.31      403.69645    
      6000   6              874.88506     -93.062267      3.5057208     -89.556546      874.88506      483626.39      401.41105    
      7000   7              791.84613     -92.905016      3.1729785     -89.732038      791.84613      494202.18      401.83009    
      8000   8              997.47145     -93.176944      3.9969324     -89.180012      997.47145      560227.17      400.04489    
      9000   9              1080.8392     -93.966368      4.3309925     -89.635375      1080.8392      439341.35      401.81062    
     10000   10             909.95127     -93.498587      3.6462334     -89.852354      909.95127      457761.39      402.16704    
Loop time of 1.0392 on 2 procs for 10000 steps with 32 atoms

Performance: 831.406 ns/day, 0.029 hours/ns, 9622.759 timesteps/s
97.6% CPU use with 2 MPI tasks x 1 OpenMP threads

MPI task timing breakdown:
Section |  min time  |  avg time  |  max time  |%varavg| %total
---------------------------------------------------------------
Pair    | 0.61397    | 0.66655    | 0.71913    |   6.4 | 64.14
Neigh   | 6.5754e-05 | 7.3359e-05 | 8.0963e-05 |   0.0 |  0.01
Comm    | 0.10728    | 0.16099    | 0.2147     |  13.4 | 15.49
Output  | 8.9049e-05 | 0.00012856 | 0.00016807 |   0.0 |  0.01
Modify  | 0.2017     | 0.20178    | 0.20186    |   0.0 | 19.42
Other   |            | 0.009679   |            |       |  0.93

Nlocal:             16 ave          16 max          16 min
Histogram: 2 0 0 0 0 0 0 0 0 0
Nghost:            914 ave         914 max         914 min
Histogram: 2 0 0 0 0 0 0 0 0 0
Neighs:           1612 ave        1966 max        1258 min
Histogram: 1 0 0 0 0 0 0 0 0 1

Total # of neighbors = 3224
Ave neighs/atom = 100.75
Neighbor list builds = 1
Dangerous builds = 0
923.760744552881 499665.443172048 401.407676842894 -2.79839319166422
 
*******LOOP # 3*********
 
Setting up Verlet run ...
  Unit style    : metal
  Current step  : 0
  Time step     : 0.001
Per MPI rank memory allocation (min/avg/max) = 3.605 | 3.605 | 3.605 Mbytes
   Step          Time           Temp          PotEng         KinEng         TotEng        c_mytemp      c_mypress        Volume    
         0   0              909.95127     -93.498587      3.6462334     -89.852354      909.95127      457761.39      402.16704    
      1000   1              899.47848     -92.956443      3.6042683     -89.352174      899.47848      488540.44      401.25482    
      2000   2              1111.1273     -93.490045      4.4523589     -89.037686      1111.1273      503344.96      400.18137    
      3000   3              887.80862     -93.075686      3.5575064     -89.51818       887.80862      538856.19      401.79077    
      4000   4              932.73435     -92.788756      3.7375267     -89.051229      932.73435      556219.12      400.21132    
      5000   5              1086.4459     -93.629283      4.3534586     -89.275824      1086.4459      501953.62      401.4513     
      6000   6              914.95932     -92.867712      3.666301      -89.201411      914.95932      541947.41      400.92465    
      7000   7              883.95618     -92.951588      3.5420694     -89.409519      883.95618      505798.16      401.29099    
      8000   8              1022.8805     -93.691243      4.0987483     -89.592495      1022.8805      445753.02      402.14723    
      9000   9              988.2943      -93.326835      3.960159      -89.366676      988.2943       442464.96      401.5672     
     10000   10             890.71041     -93.302652      3.5691341     -89.733518      890.71041      490083.56      402.47862    
Loop time of 0.984911 on 2 procs for 10000 steps with 32 atoms

Performance: 877.237 ns/day, 0.027 hours/ns, 10153.207 timesteps/s
97.4% CPU use with 2 MPI tasks x 1 OpenMP threads

MPI task timing breakdown:
Section |  min time  |  avg time  |  max time  |%varavg| %total
---------------------------------------------------------------
Pair    | 0.56813    | 0.65489    | 0.74165    |  10.7 | 66.49
Neigh   | 0          | 0          | 0          |   0.0 |  0.00
Comm    | 0.10268    | 0.18945    | 0.27621    |  19.9 | 19.23
Output  | 8.8718e-05 | 0.00012267 | 0.00015663 |   0.0 |  0.01
Modify  | 0.13132    | 0.13142    | 0.13153    |   0.0 | 13.34
Other   |            | 0.009028   |            |       |  0.92

Nlocal:             16 ave          17 max          15 min
Histogram: 1 0 0 0 0 0 0 0 0 1
Nghost:            914 ave         915 max         913 min
Histogram: 1 0 0 0 0 0 0 0 0 1
Neighs:           1619 ave        2005 max        1233 min
Histogram: 1 0 0 0 0 0 0 0 0 1

Total # of neighbors = 3238
Ave neighs/atom = 101.1875
Neighbor list builds = 0
Dangerous builds = 0
Setting up Verlet run ...
  Unit style    : metal
  Current step  : 0
  Time step     : 0.001
Per MPI rank memory allocation (min/avg/max) = 3.605 | 3.605 | 3.605 Mbytes
   Step          Time           Temp          PotEng         KinEng         TotEng        c_mytemp      c_mypress        Volume    
         0   0              890.71041     -93.302652      3.5691341     -89.733518      890.71041      490083.56      402.47862    
      1000   1              935.22608     -93.357031      3.7475112     -89.609519      935.22608      476175.78      402.00545    
      2000   2              894.21252     -92.905062      3.5831672     -89.321895      894.21252      489758.1       401.28136    
      3000   3              922.83753     -92.990085      3.6978695     -89.292215      922.83753      482448.5       400.91532    
      4000   4              944.78532     -93.175543      3.7858157     -89.389727      944.78532      501647.76      401.39935    
      5000   5              896.80145     -92.907253      3.5935412     -89.313711      896.80145      541821.99      401.46234    
      6000   6              974.84504     -93.070432      3.9062669     -89.164165      974.84504      535272.31      401.37254    
      7000   7              842.24231     -92.526302      3.3749193     -89.151383      842.24231      562033.15      400.63712    
      8000   8              963.64401     -93.099179      3.8613837     -89.237796      963.64401      508172.58      400.92161    
      9000   9              939.57641     -93.016613      3.7649433     -89.25167       939.57641      500782.09      400.78743    
     10000   10             1099.9436     -93.847459      4.4075449     -89.439914      1099.9436      439389.58      401.72964    
Loop time of 1.17047 on 2 procs for 10000 steps with 32 atoms

Performance: 738.164 ns/day, 0.033 hours/ns, 8543.566 timesteps/s
98.3% CPU use with 2 MPI tasks x 1 OpenMP threads

MPI task timing breakdown:
Section |  min time  |  avg time  |  max time  |%varavg| %total
---------------------------------------------------------------
Pair    | 0.61254    | 0.72477    | 0.837      |  13.2 | 61.92
Neigh   | 0.0001385  | 0.00016021 | 0.00018192 |   0.0 |  0.01
Comm    | 0.11208    | 0.22409    | 0.3361     |  23.7 | 19.14
Output  | 0.00016047 | 0.0004634  | 0.00076632 |   0.0 |  0.04
Modify  | 0.21026    | 0.21089    | 0.21152    |   0.1 | 18.02
Other   |            | 0.0101     |            |       |  0.86

Nlocal:             16 ave          17 max          15 min
Histogram: 1 0 0 0 0 0 0 0 0 1
Nghost:            914 ave         915 max         913 min
Histogram: 1 0 0 0 0 0 0 0 0 1
Neighs:         1615.5 ave        2044 max        1187 min
Histogram: 1 0 0 0 0 0 0 0 0 1

Total # of neighbors = 3231
Ave neighs/atom = 100.96875
Neighbor list builds = 3
Dangerous builds = 0
949.311082811623 499726.025843648 401.412266030657 -2.79287055989495
 
*******LOOP # 4*********
 
Setting up Verlet run ...
  Unit style    : metal
  Current step  : 0
  Time step     : 0.001
Per MPI rank memory allocation (min/avg/max) = 3.605 | 3.605 | 3.605 Mbytes
   Step          Time           Temp          PotEng         KinEng         TotEng        c_mytemp      c_mypress        Volume    
         0   0              1099.9436     -93.847459      4.4075449     -89.439914      1099.9436      439389.58      401.72964    
      1000   1              1048.555      -94.035586      4.2016274     -89.833959      1048.555       399379.9       403.50482    
      2000   2              1111.7624     -93.344829      4.4549035     -88.889925      1111.7624      506317.21      400.39283    
      3000   3              1060.24       -93.448478      4.2484501     -89.200028      1060.24        452263.23      401.45756    
      4000   4              807.25033     -92.538514      3.2347041     -89.30381       807.25033      497450.37      401.75875    
      5000   5              792.95269     -92.574757      3.1774126     -89.397345      792.95269      506328.23      401.8792     
      6000   6              921.43532     -92.693974      3.6922508     -89.001723      921.43532      536816.55      400.7636     
      7000   7              1039.2268     -93.270516      4.164249      -89.106267      1039.2268      499612.69      400.79511    
      8000   8              1017.7052     -93.010676      4.0780105     -88.932665      1017.7052      509646.86      400.92145    
      9000   9              856.68611     -92.743828      3.4327965     -89.311032      856.68611      466989.48      401.76199    
     10000   10             841.12146     -92.182909      3.370428      -88.812481      841.12146      611950.65      399.96285    
Loop time of 0.99289 on 2 procs for 10000 steps with 32 atoms

Performance: 870.187 ns/day, 0.028 hours/ns, 10071.610 timesteps/s
97.1% CPU use with 2 MPI tasks x 1 OpenMP threads

MPI task timing breakdown:
Section |  min time  |  avg time  |  max time  |%varavg| %total
---------------------------------------------------------------
Pair    | 0.61539    | 0.67532    | 0.73525    |   7.3 | 68.02
Neigh   | 0.00015077 | 0.00017211 | 0.00019345 |   0.0 |  0.02
Comm    | 0.1088     | 0.1693     | 0.2298     |  14.7 | 17.05
Output  | 7.4339e-05 | 0.00011362 | 0.00015291 |   0.0 |  0.01
Modify  | 0.1383     | 0.13854    | 0.13878    |   0.1 | 13.95
Other   |            | 0.009441   |            |       |  0.95

Nlocal:             16 ave          16 max          16 min
Histogram: 2 0 0 0 0 0 0 0 0 0
Nghost:            914 ave         914 max         914 min
Histogram: 2 0 0 0 0 0 0 0 0 0
Neighs:           1617 ave        1868 max        1366 min
Histogram: 1 0 0 0 0 0 0 0 0 1

Total # of neighbors = 3234
Ave neighs/atom = 101.0625
Neighbor list builds = 3
Dangerous builds = 0
Setting up Verlet run ...
  Unit style    : metal
  Current step  : 0
  Time step     : 0.001
Per MPI rank memory allocation (min/avg/max) = 3.605 | 3.605 | 3.605 Mbytes
   Step          Time           Temp          PotEng         KinEng         TotEng        c_mytemp      c_mypress        Volume    
         0   0              841.12146     -92.182909      3.370428      -88.812481      841.12146      611950.65      399.96285    
      1000   1              1010.2881     -93.386743      4.0482894     -89.338454      1010.2881      439630.28      402.14319    
      2000   2              846.37354     -92.691206      3.3914734     -89.299732      846.37354      497162.01      401.69792    
      3000   3              1159.4773     -94.14205       4.6461002     -89.49595       1159.4773      422914.83      402.36986    
      4000   4              1101.2292     -93.999338      4.4126964     -89.586642      1101.2292      472272.37      402.97368    
      5000   5              1044.894      -93.364986      4.1869575     -89.178028      1044.894       496902.92      401.43369    
      6000   6              954.97763     -93.193045      3.826657      -89.366388      954.97763      491023.85      401.85686    
      7000   7              926.46649     -92.956646      3.712411      -89.244235      926.46649      484071.36      401.78618    
      8000   8              1107.8241     -93.134509      4.4391228     -88.695386      1107.8241      521008.25      400.07633    
      9000   9              1089.4712     -94.107219      4.3655816     -89.741638      1089.4712      419471.68      402.97793    
     10000   10             1079.1409     -93.361168      4.3241873     -89.036981      1079.1409      522002.58      401.12232    
Loop time of 1.05847 on 2 procs for 10000 steps with 32 atoms

Performance: 816.269 ns/day, 0.029 hours/ns, 9447.557 timesteps/s
98.1% CPU use with 2 MPI tasks x 1 OpenMP threads

MPI task timing breakdown:
Section |  min time  |  avg time  |  max time  |%varavg| %total
---------------------------------------------------------------
Pair    | 0.59642    | 0.66884    | 0.74126    |   8.9 | 63.19
Neigh   | 4.4614e-05 | 5.076e-05  | 5.6907e-05 |   0.0 |  0.00
Comm    | 0.1078     | 0.18034    | 0.25288    |  17.1 | 17.04
Output  | 7.6106e-05 | 0.00011776 | 0.00015941 |   0.0 |  0.01
Modify  | 0.19921    | 0.1996     | 0.19999    |   0.1 | 18.86
Other   |            | 0.009528   |            |       |  0.90

Nlocal:             16 ave          16 max          16 min
Histogram: 2 0 0 0 0 0 0 0 0 0
Nghost:            914 ave         914 max         914 min
Histogram: 2 0 0 0 0 0 0 0 0 0
Neighs:         1609.5 ave        1893 max        1326 min
Histogram: 1 0 0 0 0 0 0 0 0 1

Total # of neighbors = 3219
Ave neighs/atom = 100.59375
Neighbor list builds = 1
Dangerous builds = 0
973.559170687342 499722.121469881 401.546921181823 -2.78806494599778
 
*******LOOP # 5*********
 
Setting up Verlet run ...
  Unit style    : metal
  Current step  : 0
  Time step     : 0.001
Per MPI rank memory allocation (min/avg/max) = 3.605 | 3.605 | 3.605 Mbytes
   Step          Time           Temp          PotEng         KinEng         TotEng        c_mytemp      c_mypress        Volume    
         0   0              1079.1409     -93.361168      4.3241873     -89.036981      1079.1409      522002.58      401.12232    
      1000   1              883.48636     -93.185854      3.5401868     -89.645668      883.48636      418804.76      403.27574    
      2000   2              954.68899     -92.865639      3.8255004     -89.040139      954.68899      558023.74      401.19113    
      3000   3              835.80262     -92.03515       3.349115      -88.686035      835.80262      582286.08      400.25817    
      4000   4              847.39749     -92.804909      3.3955764     -89.409332      847.39749      457438.89      402.68705    
      5000   5              889.63944     -92.711736      3.5648426     -89.146893      889.63944      522238.22      401.85566    
      6000   6              940.92422     -93.24641       3.7703441     -89.476066      940.92422      419767.19      402.74456    
      7000   7              1009.2474     -92.560514      4.0441193     -88.516395      1009.2474      574157.46      399.94507    
      8000   8              1164.3675     -93.467157      4.6656956     -88.801461      1164.3675      537989.51      400.87356    
      9000   9              974.13659     -92.75301       3.9034281     -88.849582      974.13659      503900.05      400.8665     
     10000   10             874.53405     -92.134357      3.5043143     -88.630043      874.53405      588290.39      400.02175    
Loop time of 0.99208 on 2 procs for 10000 steps with 32 atoms

Performance: 870.897 ns/day, 0.028 hours/ns, 10079.829 timesteps/s
98.3% CPU use with 2 MPI tasks x 1 OpenMP threads

MPI task timing breakdown:
Section |  min time  |  avg time  |  max time  |%varavg| %total
---------------------------------------------------------------
Pair    | 0.60772    | 0.67331    | 0.7389     |   8.0 | 67.87
Neigh   | 0.00017132 | 0.0001998  | 0.00022827 |   0.0 |  0.02
Comm    | 0.10738    | 0.17323    | 0.23907    |  15.8 | 17.46
Output  | 8.5338e-05 | 0.00012256 | 0.00015978 |   0.0 |  0.01
Modify  | 0.13582    | 0.13601    | 0.13621    |   0.1 | 13.71
Other   |            | 0.009208   |            |       |  0.93

Nlocal:             16 ave          17 max          15 min
Histogram: 1 0 0 0 0 0 0 0 0 1
Nghost:            914 ave         915 max         913 min
Histogram: 1 0 0 0 0 0 0 0 0 1
Neighs:           1616 ave        1952 max        1280 min
Histogram: 1 0 0 0 0 0 0 0 0 1

Total # of neighbors = 3232
Ave neighs/atom = 101
Neighbor list builds = 4
Dangerous builds = 0
Setting up Verlet run ...
  Unit style    : metal
  Current step  : 0
  Time step     : 0.001
Per MPI rank memory allocation (min/avg/max) = 3.605 | 3.605 | 3.605 Mbytes
   Step          Time           Temp          PotEng         KinEng         TotEng        c_mytemp      c_mypress        Volume    
         0   0              874.53405     -92.134357      3.5043143     -88.630043      874.53405      588290.39      400.02175    
      1000   1              880.12196     -92.700618      3.5267055     -89.173912      880.12196      496730.44      401.71012    
      2000   2              970.77277     -92.914055      3.8899491     -89.024106      970.77277      492649.63      401.30317    
      3000   3              1073.4514     -93.151582      4.3013888     -88.850193      1073.4514      509885.21      400.64723    
      4000   4              1014.222      -93.393283      4.0640531     -89.32923       1014.222       417191.4       402.56771    
      5000   5              969.1857      -93.149373      3.8835896     -89.265783      969.1857       474496.24      402.48215    
      6000   6              950.86982     -92.947287      3.8101967     -89.13709       950.86982      547814.05      401.7346     
      7000   7              1021.8049     -92.775981      4.0944383     -88.681543      1021.8049      584441.62      400.40556    
      8000   8              951.64592     -92.977556      3.8133066     -89.164249      951.64592      473479.88      401.87098    
      9000   9              847.62126     -92.162215      3.3964731     -88.765742      847.62126      549634.41      400.71304    
     10000   10             1021.3213     -93.354295      4.0925005     -89.261794      1021.3213      479316.52      402.54963    
Loop time of 1.04723 on 2 procs for 10000 steps with 32 atoms

Performance: 825.031 ns/day, 0.029 hours/ns, 9548.964 timesteps/s
98.2% CPU use with 2 MPI tasks x 1 OpenMP threads

MPI task timing breakdown:
Section |  min time  |  avg time  |  max time  |%varavg| %total
---------------------------------------------------------------
Pair    | 0.56017    | 0.65307    | 0.74598    |  11.5 | 62.36
Neigh   | 0          | 0          | 0          |   0.0 |  0.00
Comm    | 0.10247    | 0.19504    | 0.28761    |  21.0 | 18.62
Output  | 0.00015    | 0.00035713 | 0.00056425 |   0.0 |  0.03
Modify  | 0.18952    | 0.18974    | 0.18997    |   0.1 | 18.12
Other   |            | 0.009022   |            |       |  0.86

Nlocal:             16 ave          17 max          15 min
Histogram: 1 0 0 0 0 0 0 0 0 1
Nghost:            914 ave         915 max         913 min
Histogram: 1 0 0 0 0 0 0 0 0 1
Neighs:           1626 ave        2052 max        1200 min
Histogram: 1 0 0 0 0 0 0 0 0 1

Total # of neighbors = 3252
Ave neighs/atom = 101.625
Neighbor list builds = 0
Dangerous builds = 0
998.960144882037 499906.709649463 401.434673747953 -2.78153155825967
 
*******LOOP # 6*********
 
Setting up Verlet run ...
  Unit style    : metal
  Current step  : 0
  Time step     : 0.001
Per MPI rank memory allocation (min/avg/max) = 3.605 | 3.605 | 3.605 Mbytes
   Step          Time           Temp          PotEng         KinEng         TotEng        c_mytemp      c_mypress        Volume    
         0   0              1021.3213     -93.354295      4.0925005     -89.261794      1021.3213      479316.52      402.54963    
      1000   1              890.0826      -92.539175      3.5666184     -88.972557      890.0826       471907.28      401.54045    
      2000   2              972.7847      -92.710376      3.898011      -88.812365      972.7847       523762.97      401.2632     
      3000   3              1190.6602     -94.161181      4.7710524     -89.390129      1190.6602      363505.02      403.4633     
      4000   4              1069.6686     -93.057336      4.2862311     -88.771105      1069.6686      542764.07      401.37399    
      5000   5              925.02595     -92.77769       3.7066386     -89.071052      925.02595      514627.34      402.27808    
      6000   6              1015.1312     -92.268285      4.067696      -88.200589      1015.1312      605149.3       399.94312    
      7000   7              883.77815     -92.194528      3.541356      -88.653172      883.77815      544451.81      400.90365    
      8000   8              850.80589     -92.347001      3.4092341     -88.937767      850.80589      499523.5       401.53429    
      9000   9              860.00499     -92.418281      3.4460955     -88.972186      860.00499      502990.44      401.52781    
     10000   10             1168.4692     -93.724506      4.6821316     -89.042374      1168.4692      409650.82      402.1983     
Loop time of 0.995677 on 2 procs for 10000 steps with 32 atoms

Performance: 867.751 ns/day, 0.028 hours/ns, 10043.415 timesteps/s
97.4% CPU use with 2 MPI tasks x 1 OpenMP threads

MPI task timing breakdown:
Section |  min time  |  avg time  |  max time  |%varavg| %total
---------------------------------------------------------------
Pair    | 0.62592    | 0.68018    | 0.73444    |   6.6 | 68.31
Neigh   | 0          | 0          | 0          |   0.0 |  0.00
Comm    | 0.10862    | 0.16413    | 0.21964    |  13.7 | 16.48
Output  | 7.9841e-05 | 0.00011891 | 0.00015798 |   0.0 |  0.01
Modify  | 0.14098    | 0.14156    | 0.14213    |   0.2 | 14.22
Other   |            | 0.009691   |            |       |  0.97

Nlocal:             16 ave          17 max          15 min
Histogram: 1 0 0 0 0 0 0 0 0 1
Nghost:            914 ave         915 max         913 min
Histogram: 1 0 0 0 0 0 0 0 0 1
Neighs:         1615.5 ave        1834 max        1397 min
Histogram: 1 0 0 0 0 0 0 0 0 1

Total # of neighbors = 3231
Ave neighs/atom = 100.96875
Neighbor list builds = 0
Dangerous builds = 0
Setting up Verlet run ...
  Unit style    : metal
  Current step  : 0
  Time step     : 0.001
Per MPI rank memory allocation (min/avg/max) = 3.605 | 3.605 | 3.605 Mbytes
   Step          Time           Temp          PotEng         KinEng         TotEng        c_mytemp      c_mypress        Volume    
         0   0              1168.4692     -93.724506      4.6821316     -89.042374      1168.4692      409650.82      402.1983     
      1000   1              1062.4913     -93.186557      4.257471      -88.929086      1062.4913      490580.78      401.80083    
      2000   2              920.24764     -92.664969      3.6874916     -88.977478      920.24764      497769.08      401.79038    
      3000   3              1044.4619     -93.425602      4.1852261     -89.240376      1044.4619      444969.92      402.72952    
      4000   4              1097.3185     -92.937368      4.3970259     -88.540342      1097.3185      524497.26      400.44281    
      5000   5              868.31666     -92.578889      3.4794009     -89.099488      868.31666      489887.09      401.74807    
      6000   6              1096.0714     -92.612967      4.3920288     -88.220938      1096.0714      567061.48      399.32878    
      7000   7              1025.5245     -93.337724      4.1093429     -89.228382      1025.5245      436537.14      402.50184    
      8000   8              968.3368      -93.175851      3.880188      -89.295663      968.3368       383897.59      403.0273     
      9000   9              1084.713      -93.167693      4.3465149     -88.821178      1084.713       470235.04      401.47569    
     10000   10             907.42479     -93.024797      3.6361097     -89.388688      907.42479      409838.54      402.76836    
Loop time of 1.06803 on 2 procs for 10000 steps with 32 atoms

Performance: 808.963 ns/day, 0.030 hours/ns, 9363.001 timesteps/s
98.2% CPU use with 2 MPI tasks x 1 OpenMP threads

MPI task timing breakdown:
Section |  min time  |  avg time  |  max time  |%varavg| %total
---------------------------------------------------------------
Pair    | 0.62419    | 0.68552    | 0.74685    |   7.4 | 64.19
Neigh   | 0          | 0          | 0          |   0.0 |  0.00
Comm    | 0.10979    | 0.17082    | 0.23184    |  14.8 | 15.99
Output  | 7.6885e-05 | 0.0001153  | 0.00015371 |   0.0 |  0.01
Modify  | 0.20202    | 0.20204    | 0.20205    |   0.0 | 18.92
Other   |            | 0.00955    |            |       |  0.89

Nlocal:             16 ave          17 max          15 min
Histogram: 1 0 0 0 0 0 0 0 0 1
Nghost:            914 ave         915 max         913 min
Histogram: 1 0 0 0 0 0 0 0 0 1
Neighs:           1613 ave        1923 max        1303 min
Histogram: 1 0 0 0 0 0 0 0 0 1

Total # of neighbors = 3226
Ave neighs/atom = 100.8125
Neighbor list builds = 0
Dangerous builds = 0
1024.05834835351 499689.25468597 401.426270053028 -2.77628391494764
 
*******LOOP # 7*********
 
Setting up Verlet run ...
  Unit style    : metal
  Current step  : 0
  Time step     : 0.001
Per MPI rank memory allocation (min/avg/max) = 3.605 | 3.605 | 3.605 Mbytes
   Step          Time           Temp          PotEng         KinEng         TotEng        c_mytemp      c_mypress        Volume    
         0   0              907.42479     -93.024797      3.6361097     -89.388688      907.42479      409838.54      402.76836    
      1000   1              1077.3831     -93.184939      4.3171435     -88.867796      1077.3831      459336.96      402.39123    
      2000   2              1036.8705     -92.894322      4.154807      -88.739515      1036.8705      488017.99      401.69936    
      3000   3              874.18083     -92.20505       3.502899      -88.702151      874.18083      493573.13      401.52206    
      4000   4              1149.045      -93.161899      4.6042976     -88.557601      1149.045       476294.27      401.07843    
      5000   5              1144.0536     -93.579412      4.5842966     -88.995115      1144.0536      413223.59      402.39625    
      6000   6              931.93777     -92.151994      3.7343347     -88.41766       931.93777      551106.16      400.42142    
      7000   7              1135.1973     -93.015877      4.5488089     -88.467068      1135.1973      523865.83      400.89237    
      8000   8              1152.9349     -93.531615      4.6198847     -88.911731      1152.9349      478397.35      402.51166    
      9000   9              1046.4172     -93.248243      4.1930612     -89.055182      1046.4172      469988.75      402.7419     
     10000   10             1072.7892     -93.060353      4.2987356     -88.761618      1072.7892      488353.35      401.6641     
Loop time of 0.939022 on 2 procs for 10000 steps with 32 atoms

Performance: 920.106 ns/day, 0.026 hours/ns, 10649.374 timesteps/s
97.9% CPU use with 2 MPI tasks x 1 OpenMP threads

MPI task timing breakdown:
Section |  min time  |  avg time  |  max time  |%varavg| %total
---------------------------------------------------------------
Pair    | 0.60618    | 0.64689    | 0.68761    |   5.1 | 68.89
Neigh   | 0.0001722  | 0.00019493 | 0.00021766 |   0.0 |  0.02
Comm    | 0.10561    | 0.14747    | 0.18934    |  10.9 | 15.70
Output  | 0.00014659 | 0.00039735 | 0.00064811 |   0.0 |  0.04
Modify  | 0.13397    | 0.13489    | 0.13581    |   0.3 | 14.36
Other   |            | 0.009173   |            |       |  0.98

Nlocal:             16 ave          17 max          15 min
Histogram: 1 0 0 0 0 0 0 0 0 1
Nghost:            914 ave         915 max         913 min
Histogram: 1 0 0 0 0 0 0 0 0 1
Neighs:           1618 ave        1852 max        1384 min
Histogram: 1 0 0 0 0 0 0 0 0 1

Total # of neighbors = 3236
Ave neighs/atom = 101.125
Neighbor list builds = 4
Dangerous builds = 0
Setting up Verlet run ...
  Unit style    : metal
  Current step  : 0
  Time step     : 0.001
Per MPI rank memory allocation (min/avg/max) = 3.605 | 3.605 | 3.605 Mbytes
   Step          Time           Temp          PotEng         KinEng         TotEng        c_mytemp      c_mypress        Volume    
         0   0              1072.7892     -93.060353      4.2987356     -88.761618      1072.7892      488353.35      401.6641     
      1000   1              1135.0264     -92.690988      4.5481241     -88.142864      1135.0264      555682.51      399.66517    
      2000   2              1062.5442     -93.08572       4.257683      -88.828037      1062.5442      492795.08      401.87047    
      3000   3              991.22951     -92.668182      3.9719206     -88.696262      991.22951      480506.68      401.42399    
      4000   4              964.03782     -92.268696      3.8629617     -88.405735      964.03782      546876.3       400.74903    
      5000   5              1114.5712     -92.911383      4.4661587     -88.445225      1114.5712      510029.56      400.9465     
      6000   6              1162.4985     -93.275274      4.6582066     -88.617067      1162.4985      463838.16      401.39526    
      7000   7              1223.0797     -93.866606      4.9009592     -88.965647      1223.0797      434902.74      402.45421    
      8000   8              994.71857     -92.804756      3.9859015     -88.818854      994.71857      553868         402.21179    
      9000   9              1093.4745     -93.100728      4.3816227     -88.719106      1093.4745      501725.17      401.68959    
     10000   10             920.17288     -92.808361      3.6871921     -89.121168      920.17288      459928.33      402.81515    
Loop time of 0.96166 on 2 procs for 10000 steps with 32 atoms

Performance: 898.446 ns/day, 0.027 hours/ns, 10398.681 timesteps/s
97.8% CPU use with 2 MPI tasks x 1 OpenMP threads

MPI task timing breakdown:
Section |  min time  |  avg time  |  max time  |%varavg| %total
---------------------------------------------------------------
Pair    | 0.59387    | 0.62596    | 0.65806    |   4.1 | 65.09
Neigh   | 0          | 0          | 0          |   0.0 |  0.00
Comm    | 0.10134    | 0.13508    | 0.16882    |   9.2 | 14.05
Output  | 7.2359e-05 | 0.00011503 | 0.0001577  |   0.0 |  0.01
Modify  | 0.19025    | 0.19136    | 0.19246    |   0.3 | 19.90
Other   |            | 0.009145   |            |       |  0.95

Nlocal:             16 ave          17 max          15 min
Histogram: 1 0 0 0 0 0 0 0 0 1
Nghost:            914 ave         915 max         913 min
Histogram: 1 0 0 0 0 0 0 0 0 1
Neighs:         1613.5 ave        1784 max        1443 min
Histogram: 1 0 0 0 0 0 0 0 0 1

Total # of neighbors = 3227
Ave neighs/atom = 100.84375
Neighbor list builds = 0
Dangerous builds = 0
1048.69918002279 499789.074314827 401.649192379764 -2.77169789067955
 
*******LOOP # 8*********
 
Setting up Verlet run ...
  Unit style    : metal
  Current step  : 0
  Time step     : 0.001
Per MPI rank memory allocation (min/avg/max) = 3.605 | 3.605 | 3.605 Mbytes
   Step          Time           Temp          PotEng         KinEng         TotEng        c_mytemp      c_mypress        Volume    
         0   0              920.17288     -92.808361      3.6871921     -89.121168      920.17288      459928.33      402.81515    
      1000   1              1030.4219     -92.67066       4.1289671     -88.541693      1030.4219      470793.7       401.77811    
      2000   2              865.78452     -92.289944      3.4692544     -88.82069       865.78452      481645.62      402.59848    
      3000   3              1121.8156     -92.645493      4.4951876     -88.150306      1121.8156      553657.09      400.24466    
      4000   4              1048.32       -92.928499      4.2006859     -88.727813      1048.32        487443         402.1039     
      5000   5              1040.1858     -93.352477      4.1680917     -89.184385      1040.1858      388792.12      403.8564     
      6000   6              937.96401     -92.211323      3.7584823     -88.452841      937.96401      510936.02      401.39752    
      7000   7              1152.2754     -93.25006       4.6172418     -88.632818      1152.2754      505744.59      402.0878     
      8000   8              958.18265     -92.708098      3.8394997     -88.868599      958.18265      491800.03      402.86872    
      9000   9              1107.1606     -93.252803      4.4364639     -88.816339      1107.1606      451020.48      402.62277    
     10000   10             1208.1599     -93.500538      4.8411745     -88.659364      1208.1599      482164.41      402.24002    
Loop time of 1.03774 on 2 procs for 10000 steps with 32 atoms

Performance: 832.576 ns/day, 0.029 hours/ns, 9636.301 timesteps/s
97.8% CPU use with 2 MPI tasks x 1 OpenMP threads

MPI task timing breakdown:
Section |  min time  |  avg time  |  max time  |%varavg| %total
---------------------------------------------------------------
Pair    | 0.59077    | 0.68606    | 0.78134    |  11.5 | 66.11
Neigh   | 0          | 0          | 0          |   0.0 |  0.00
Comm    | 0.10857    | 0.20391    | 0.29925    |  21.1 | 19.65
Output  | 7.8911e-05 | 0.00011705 | 0.00015519 |   0.0 |  0.01
Modify  | 0.13796    | 0.1382     | 0.13843    |   0.1 | 13.32
Other   |            | 0.009461   |            |       |  0.91

Nlocal:             16 ave          17 max          15 min
Histogram: 1 0 0 0 0 0 0 0 0 1
Nghost:            914 ave         915 max         913 min
Histogram: 1 0 0 0 0 0 0 0 0 1
Neighs:         1611.5 ave        2031 max        1192 min
Histogram: 1 0 0 0 0 0 0 0 0 1

Total # of neighbors = 3223
Ave neighs/atom = 100.71875
Neighbor list builds = 0
Dangerous builds = 0
Setting up Verlet run ...
  Unit style    : metal
  Current step  : 0
  Time step     : 0.001
Per MPI rank memory allocation (min/avg/max) = 3.605 | 3.605 | 3.605 Mbytes
   Step          Time           Temp          PotEng         KinEng         TotEng        c_mytemp      c_mypress        Volume    
         0   0              1208.1599     -93.500538      4.8411745     -88.659364      1208.1599      482164.41      402.24002    
      1000   1              969.74912     -92.726782      3.8858473     -88.840934      969.74912      491795.66      402.52602    
      2000   2              1142.4794     -92.820417      4.5779884     -88.242428      1142.4794      492150.72      400.79661    
      3000   3              1288.4466     -93.432186      5.1628886     -88.269297      1288.4466      515783.86      401.2123     
      4000   4              901.30102     -91.680628      3.6115713     -88.069056      901.30102      606820.13      400.15119    
      5000   5              1108.5965     -93.253309      4.4422176     -88.811091      1108.5965      496694.64      402.66343    
      6000   6              1104.5807     -92.938235      4.4261262     -88.512109      1104.5807      473939.44      401.85683    
      7000   7              1046.539      -92.73951       4.1935493     -88.545961      1046.539       539813.52      401.7307     
      8000   8              1320.4122     -93.496716      5.290977      -88.205739      1320.4122      490930.29      400.66106    
      9000   9              985.26677     -92.288042      3.9480275     -88.340014      985.26677      536271.49      401.36157    
     10000   10             1168.4692     -92.807441      4.6821316     -88.125309      1168.4692      508412.32      400.47195    
Loop time of 0.992161 on 2 procs for 10000 steps with 32 atoms

Performance: 870.826 ns/day, 0.028 hours/ns, 10079.005 timesteps/s
97.7% CPU use with 2 MPI tasks x 1 OpenMP threads

MPI task timing breakdown:
Section |  min time  |  avg time  |  max time  |%varavg| %total
---------------------------------------------------------------
Pair    | 0.59936    | 0.64116    | 0.68297    |   5.2 | 64.62
Neigh   | 0          | 0          | 0          |   0.0 |  0.00
Comm    | 0.10344    | 0.14645    | 0.18947    |  11.2 | 14.76
Output  | 0.00014765 | 0.00040971 | 0.00067178 |   0.0 |  0.04
Modify  | 0.19398    | 0.19499    | 0.196      |   0.2 | 19.65
Other   |            | 0.009145   |            |       |  0.92

Nlocal:             16 ave          17 max          15 min
Histogram: 1 0 0 0 0 0 0 0 0 1
Nghost:            914 ave         915 max         913 min
Histogram: 1 0 0 0 0 0 0 0 0 1
Neighs:         1615.5 ave        1821 max        1410 min
Histogram: 1 0 0 0 0 0 0 0 0 1

Total # of neighbors = 3231
Ave neighs/atom = 100.96875
Neighbor list builds = 0
Dangerous builds = 0
1073.80492534851 499713.978702661 401.711831527197 -2.7669448389199
 
*******LOOP # 9*********
 
Setting up Verlet run ...
  Unit style    : metal
  Current step  : 0
  Time step     : 0.001
Per MPI rank memory allocation (min/avg/max) = 3.605 | 3.605 | 3.605 Mbytes
   Step          Time           Temp          PotEng         KinEng         TotEng        c_mytemp      c_mypress        Volume    
         0   0              1168.4692     -92.807441      4.6821316     -88.125309      1168.4692      508412.32      400.47195    
      1000   1              1376.3364     -93.491936      5.5150686     -87.976868      1376.3364      506117.32      400.5857     
      2000   2              1024.4967     -92.052949      4.1052245     -87.947724      1024.4967      554698.59      400.01909    
      3000   3              1260.2362     -93.502024      5.0498477     -88.452176      1260.2362      412694.42      402.10188    
      4000   4              1123.0218     -93.125166      4.5000208     -88.625145      1123.0218      481716.33      402.75338    
      5000   5              964.9102      -92.858098      3.8664574     -88.991641      964.9102       490639.93      403.94859    
      6000   6              1160.9965     -92.796657      4.6521877     -88.14447       1160.9965      534328.45      401.03476    
      7000   7              1242.4181     -93.848353      4.9784497     -88.869903      1242.4181      465851.82      403.67758    
      8000   8              1171.7342     -92.916431      4.6952146     -88.221217      1171.7342      489435.04      401.15771    
      9000   9              1038.915      -91.831826      4.1629995     -87.668827      1038.915       603215.72      399.78575    
     10000   10             1275.9197     -93.155254      5.1126927     -88.042561      1275.9197      502419.5       400.7729     
Loop time of 0.956155 on 2 procs for 10000 steps with 32 atoms

Performance: 903.619 ns/day, 0.027 hours/ns, 10458.557 timesteps/s
98.1% CPU use with 2 MPI tasks x 1 OpenMP threads

MPI task timing breakdown:
Section |  min time  |  avg time  |  max time  |%varavg| %total
---------------------------------------------------------------
Pair    | 0.60134    | 0.6525     | 0.70366    |   6.3 | 68.24
Neigh   | 8.5252e-05 | 9.5566e-05 | 0.00010588 |   0.0 |  0.01
Comm    | 0.10697    | 0.15876    | 0.21054    |  13.0 | 16.60
Output  | 0.00015316 | 0.0004107  | 0.00066823 |   0.0 |  0.04
Modify  | 0.13476    | 0.13498    | 0.1352     |   0.1 | 14.12
Other   |            | 0.009417   |            |       |  0.98

Nlocal:             16 ave          17 max          15 min
Histogram: 1 0 0 0 0 0 0 0 0 1
Nghost:            914 ave         915 max         913 min
Histogram: 1 0 0 0 0 0 0 0 0 1
Neighs:         1618.5 ave        1774 max        1463 min
Histogram: 1 0 0 0 0 0 0 0 0 1

Total # of neighbors = 3237
Ave neighs/atom = 101.15625
Neighbor list builds = 2
Dangerous builds = 0
Setting up Verlet run ...
  Unit style    : metal
  Current step  : 0
  Time step     : 0.001
Per MPI rank memory allocation (min/avg/max) = 3.605 | 3.605 | 3.605 Mbytes
   Step          Time           Temp          PotEng         KinEng         TotEng        c_mytemp      c_mypress        Volume    
         0   0              1275.9197     -93.155254      5.1126927     -88.042561      1275.9197      502419.5       400.7729     
      1000   1              1125.2607     -93.011092      4.5089923     -88.5021        1125.2607      462027.88      401.90886    
      2000   2              982.43633     -92.524161      3.9366857     -88.587475      982.43633      523529.54      402.51466    
      3000   3              1067.5856     -92.644542      4.2778844     -88.366658      1067.5856      470530.13      401.57309    
      4000   4              1044.9217     -92.078608      4.1870688     -87.891539      1044.9217      548698.16      400.24608    
      5000   5              1017.456      -92.85527       4.0770117     -88.778259      1017.456       472163.93      403.15905    
      6000   6              1181.285      -93.023633      4.7334854     -88.290148      1181.285       534059.14      401.64322    
      7000   7              893.66911     -92.080914      3.5809897     -88.499924      893.66911      523336.1       401.93006    
      8000   8              1016.9594     -92.144256      4.0750218     -88.069234      1016.9594      568110.49      401.05425    
      9000   9              1066.9764     -92.869582      4.2754433     -88.594139      1066.9764      455917.27      402.06195    
     10000   10             1100.9415     -92.76759       4.4115438     -88.356046      1100.9415      484933.16      401.61872    
Loop time of 0.980171 on 2 procs for 10000 steps with 32 atoms

Performance: 881.479 ns/day, 0.027 hours/ns, 10202.300 timesteps/s
97.7% CPU use with 2 MPI tasks x 1 OpenMP threads

MPI task timing breakdown:
Section |  min time  |  avg time  |  max time  |%varavg| %total
---------------------------------------------------------------
Pair    | 0.62734    | 0.64691    | 0.66648    |   2.4 | 66.00
Neigh   | 0.00012853 | 0.00015111 | 0.00017369 |   0.0 |  0.02
Comm    | 0.10631    | 0.1275     | 0.1487     |   5.9 | 13.01
Output  | 8.0812e-05 | 0.00011823 | 0.00015566 |   0.0 |  0.01
Modify  | 0.19514    | 0.19618    | 0.19722    |   0.2 | 20.01
Other   |            | 0.009308   |            |       |  0.95

Nlocal:             16 ave          18 max          14 min
Histogram: 1 0 0 0 0 0 0 0 0 1
Nghost:            914 ave         916 max         912 min
Histogram: 1 0 0 0 0 0 0 0 0 1
Neighs:         1606.5 ave        1620 max        1593 min
Histogram: 1 0 0 0 0 0 0 0 0 1

Total # of neighbors = 3213
Ave neighs/atom = 100.40625
Neighbor list builds = 3
Dangerous builds = 0
1098.99154845433 499678.547107592 401.787067515853 -2.76187825057382
 
*******LOOP # 10*********
 
Setting up Verlet run ...
  Unit style    : metal
  Current step  : 0
  Time step     : 0.001
Per MPI rank memory allocation (min/avg/max) = 3.605 | 3.605 | 3.605 Mbytes
   Step          Time           Temp          PotEng         KinEng         TotEng        c_mytemp      c_mypress        Volume    
         0   0              1100.9415     -92.76759       4.4115438     -88.356046      1100.9415      484933.16      401.61872    
      1000   1              1226.4385     -93.578946      4.9144181     -88.664528      1226.4385      405829.26      403.38666    
      2000   2              1205.0631     -92.766836      4.8287654     -87.93807       1205.0631      484181.76      401.05092    
      3000   3              858.2542      -91.093012      3.4390799     -87.653932      858.2542       592189.08      400.18189    
      4000   4              1190.9169     -92.6763        4.7720809     -87.904219      1190.9169      501579.35      400.5003     
      5000   5              1296.5029     -93.022361      5.1951706     -87.827191      1296.5029      527591.62      400.89448    
      6000   6              1007.2683     -92.16124       4.0361889     -88.125051      1007.2683      506780.93      401.49939    
      7000   7              1055.6014     -92.579131      4.2298627     -88.349268      1055.6014      499655.66      402.35087    
      8000   8              1168.5475     -93.186131      4.682445      -88.503686      1168.5475      530398.78      402.93117    
      9000   9              1109.0884     -92.604849      4.4441886     -88.160661      1109.0884      535178.29      401.71268    
     10000   10             1355.1754     -93.399219      5.4302753     -87.968944      1355.1754      502017.38      401.09611    
Loop time of 1.02357 on 2 procs for 10000 steps with 32 atoms

Performance: 844.103 ns/day, 0.028 hours/ns, 9769.716 timesteps/s
97.7% CPU use with 2 MPI tasks x 1 OpenMP threads

MPI task timing breakdown:
Section |  min time  |  avg time  |  max time  |%varavg| %total
---------------------------------------------------------------
Pair    | 0.57263    | 0.67324    | 0.77386    |  12.3 | 65.77
Neigh   | 0          | 0          | 0          |   0.0 |  0.00
Comm    | 0.10564    | 0.20634    | 0.30704    |  22.2 | 20.16
Output  | 8.5541e-05 | 0.00012326 | 0.00016097 |   0.0 |  0.01
Modify  | 0.13458    | 0.13473    | 0.13487    |   0.0 | 13.16
Other   |            | 0.009139   |            |       |  0.89

Nlocal:             16 ave          17 max          15 min
Histogram: 1 0 0 0 0 0 0 0 0 1
Nghost:            914 ave         915 max         913 min
Histogram: 1 0 0 0 0 0 0 0 0 1
Neighs:         1613.5 ave        2036 max        1191 min
Histogram: 1 0 0 0 0 0 0 0 0 1

Total # of neighbors = 3227
Ave neighs/atom = 100.84375
Neighbor list builds = 0
Dangerous builds = 0
Setting up Verlet run ...
  Unit style    : metal
  Current step  : 0
  Time step     : 0.001
Per MPI rank memory allocation (min/avg/max) = 3.605 | 3.605 | 3.605 Mbytes
   Step          Time           Temp          PotEng         KinEng         TotEng        c_mytemp      c_mypress        Volume    
         0   0              1355.1754     -93.399219      5.4302753     -87.968944      1355.1754      502017.38      401.09611    
      1000   1              1217.7673     -93.187297      4.879672      -88.307625      1217.7673      461534.41      402.48898    
      2000   2              1195.1949     -93.333528      4.7892231     -88.544305      1195.1949      388271.24      402.72881    
      3000   3              1023.3032     -92.330199      4.1004418     -88.229757      1023.3032      492909.94      402.10666    
      4000   4              1302.9793     -94.074067      5.2211222     -88.852944      1302.9793      416148.73      404.00152    
      5000   5              1170.0205     -92.601117      4.6883478     -87.912769      1170.0205      584101.07      400.98729    
      6000   6              1113.786      -92.782965      4.4630122     -88.319953      1113.786       484331.49      402.32414    
      7000   7              1186.7272     -92.706137      4.7552925     -87.950844      1186.7272      519311.98      400.80764    
      8000   8              993.20997     -92.09518       3.9798564     -88.115324      993.20997      487756.99      401.48262    
      9000   9              1254.3115     -93.162536      5.0261069     -88.136429      1254.3115      500730.62      401.91241    
     10000   10             1143.6695     -92.241662      4.5827576     -87.658904      1143.6695      588273.52      399.94152    
Loop time of 1.09076 on 2 procs for 10000 steps with 32 atoms

Performance: 792.109 ns/day, 0.030 hours/ns, 9167.923 timesteps/s
98.1% CPU use with 2 MPI tasks x 1 OpenMP threads

MPI task timing breakdown:
Section |  min time  |  avg time  |  max time  |%varavg| %total
---------------------------------------------------------------
Pair    | 0.58551    | 0.68084    | 0.77617    |  11.6 | 62.42
Neigh   | 0          | 0          | 0          |   0.0 |  0.00
Comm    | 0.10752    | 0.20243    | 0.29734    |  21.1 | 18.56
Output  | 0.00014657 | 0.00035885 | 0.00057113 |   0.0 |  0.03
Modify  | 0.19739    | 0.19777    | 0.19815    |   0.1 | 18.13
Other   |            | 0.009366   |            |       |  0.86

Nlocal:             16 ave          18 max          14 min
Histogram: 1 0 0 0 0 0 0 0 0 1
Nghost:            914 ave         916 max         912 min
Histogram: 1 0 0 0 0 0 0 0 0 1
Neighs:         1619.5 ave        2059 max        1180 min
Histogram: 1 0 0 0 0 0 0 0 0 1

Total # of neighbors = 3239
Ave neighs/atom = 101.21875
Neighbor list builds = 0
Dangerous builds = 0
1124.04500759604 499776.731031949 401.969021132042 -2.75731661113949
 
*******LOOP # 11*********
 
Setting up Verlet run ...
  Unit style    : metal
  Current step  : 0
  Time step     : 0.001
Per MPI rank memory allocation (min/avg/max) = 3.605 | 3.605 | 3.605 Mbytes
   Step          Time           Temp          PotEng         KinEng         TotEng        c_mytemp      c_mypress        Volume    
         0   0              1143.6695     -92.241662      4.5827576     -87.658904      1143.6695      588273.52      399.94152    
      1000   1              1229.1293     -92.96936       4.9252005     -88.044159      1229.1293      508257.25      402.09939    
      2000   2              1211.541      -93.104673      4.854723      -88.24995       1211.541       482276.59      402.17886    
      3000   3              1108.4776     -92.015938      4.4417411     -87.574197      1108.4776      583616.13      400.57974    
      4000   4              1210.1593     -92.607684      4.8491865     -87.758497      1210.1593      523349.19      401.01963    
      5000   5              1164.9066     -92.568509      4.6678558     -87.900654      1164.9066      507126.92      401.58285    
      6000   6              1181.832      -92.95412       4.7356769     -88.218444      1181.832       446855.53      402.38513    
      7000   7              1303.7398     -93.355556      5.2241696     -88.131386      1303.7398      478371.37      402.28103    
      8000   8              1163.2099     -92.696628      4.6610571     -88.035571      1163.2099      467013.54      402.19269    
      9000   9              1090.0831     -92.056877      4.3680335     -87.688843      1090.0831      521950.67      400.70834    
     10000   10             970.38118     -92.520025      3.88838       -88.631645      970.38118      465614.04      403.56713    
Loop time of 0.958456 on 2 procs for 10000 steps with 32 atoms

Performance: 901.450 ns/day, 0.027 hours/ns, 10433.447 timesteps/s
98.2% CPU use with 2 MPI tasks x 1 OpenMP threads

MPI task timing breakdown:
Section |  min time  |  avg time  |  max time  |%varavg| %total
---------------------------------------------------------------
Pair    | 0.60784    | 0.659      | 0.71016    |   6.3 | 68.76
Neigh   | 0          | 0          | 0          |   0.0 |  0.00
Comm    | 0.10386    | 0.15582    | 0.20779    |  13.2 | 16.26
Output  | 7.4683e-05 | 0.00011246 | 0.00015023 |   0.0 |  0.01
Modify  | 0.13396    | 0.13452    | 0.13509    |   0.2 | 14.04
Other   |            | 0.008997   |            |       |  0.94

Nlocal:             16 ave          17 max          15 min
Histogram: 1 0 0 0 0 0 0 0 0 1
Nghost:            914 ave         915 max         913 min
Histogram: 1 0 0 0 0 0 0 0 0 1
Neighs:           1616 ave        1824 max        1408 min
Histogram: 1 0 0 0 0 0 0 0 0 1

Total # of neighbors = 3232
Ave neighs/atom = 101
Neighbor list builds = 0
Dangerous builds = 0
Setting up Verlet run ...
  Unit style    : metal
  Current step  : 0
  Time step     : 0.001
Per MPI rank memory allocation (min/avg/max) = 3.605 | 3.605 | 3.605 Mbytes
   Step          Time           Temp          PotEng         KinEng         TotEng        c_mytemp      c_mypress        Volume    
         0   0              970.38118     -92.520025      3.88838       -88.631645      970.38118      465614.04      403.56713    
      1000   1              1181.8574     -93.10557       4.7357789     -88.369792      1181.8574      452548.38      402.67081    
      2000   2              1324.6819     -93.250016      5.3080859     -87.94193       1324.6819      465809.92      401.43449    
      3000   3              1077.7985     -92.587849      4.318808      -88.269041      1077.7985      492745.82      402.7304     
      4000   4              1085.4114     -92.413684      4.3493134     -88.064371      1085.4114      513663.74      402.11064    
      5000   5              1332.3027     -93.570429      5.3386227     -88.231806      1332.3027      437109.22      401.94953    
      6000   6              1125.4493     -92.56709       4.5097479     -88.057342      1125.4493      458675.92      401.93943    
      7000   7              1204.5124     -93.399321      4.826559      -88.572762      1204.5124      406232.01      403.73601    
      8000   8              1239.1417     -92.221571      4.9653206     -87.25625       1239.1417      633817.29      399.58724    
      9000   9              1110.7616     -92.53872       4.4508935     -88.087826      1110.7616      488932.57      401.85142    
     10000   10             1148.4821     -92.622122      4.6020418     -88.020081      1148.4821      553284.64      401.87177    
Loop time of 1.0952 on 2 procs for 10000 steps with 32 atoms

Performance: 788.900 ns/day, 0.030 hours/ns, 9130.787 timesteps/s
97.8% CPU use with 2 MPI tasks x 1 OpenMP threads

MPI task timing breakdown:
Section |  min time  |  avg time  |  max time  |%varavg| %total
---------------------------------------------------------------
Pair    | 0.61411    | 0.69381    | 0.7735     |   9.6 | 63.35
Neigh   | 0          | 0          | 0          |   0.0 |  0.00
Comm    | 0.10882    | 0.18917    | 0.26952    |  18.5 | 17.27
Output  | 7.6031e-05 | 0.00011714 | 0.00015826 |   0.0 |  0.01
Modify  | 0.20201    | 0.20256    | 0.20312    |   0.1 | 18.50
Other   |            | 0.009538   |            |       |  0.87

Nlocal:             16 ave          16 max          16 min
Histogram: 2 0 0 0 0 0 0 0 0 0
Nghost:            914 ave         914 max         914 min
Histogram: 2 0 0 0 0 0 0 0 0 0
Neighs:           1608 ave        1902 max        1314 min
Histogram: 1 0 0 0 0 0 0 0 0 1

Total # of neighbors = 3216
Ave neighs/atom = 100.5
Neighbor list builds = 0
Dangerous builds = 0
1148.22996162001 499897.559990729 401.863000423681 -2.75165927525336
 
*******LOOP # 12*********
 
Setting up Verlet run ...
  Unit style    : metal
  Current step  : 0
  Time step     : 0.001
Per MPI rank memory allocation (min/avg/max) = 3.605 | 3.605 | 3.605 Mbytes
   Step          Time           Temp          PotEng         KinEng         TotEng        c_mytemp      c_mypress        Volume    
         0   0              1148.4821     -92.622122      4.6020418     -88.020081      1148.4821      553284.64      401.87177    
      1000   1              1301.7481     -93.300736      5.2161885     -88.084548      1301.7481      486684.16      402.2059     
      2000   2              1327.4772     -92.886336      5.3192868     -87.567049      1327.4772      547224.95      401.224      
      3000   3              1266.0304     -92.405997      5.0730655     -87.332931      1266.0304      546874.56      400.47223    
      4000   4              1346.4153     -93.481762      5.3951728     -88.086589      1346.4153      446173.36      402.83859    
      5000   5              1210.8709     -93.026019      4.8520378     -88.173981      1210.8709      459965.05      402.88637    
      6000   6              1284.6813     -92.873059      5.1478008     -87.725259      1284.6813      576625.75      401.68402    
      7000   7              1096.2296     -92.305148      4.3926626     -87.912486      1096.2296      463613.03      401.65208    
      8000   8              1141.0631     -92.683425      4.5723134     -88.111112      1141.0631      512403.3       402.11916    
      9000   9              1141.5799     -92.570504      4.5743845     -87.99612       1141.5799      457671.55      402.19291    
     10000   10             1019.7369     -91.308865      4.0861514     -87.222714      1019.7369      649132.84      400.0711     
Loop time of 1.02731 on 2 procs for 10000 steps with 32 atoms

Performance: 841.034 ns/day, 0.029 hours/ns, 9734.195 timesteps/s
97.8% CPU use with 2 MPI tasks x 1 OpenMP threads

MPI task timing breakdown:
Section |  min time  |  avg time  |  max time  |%varavg| %total
---------------------------------------------------------------
Pair    | 0.58078    | 0.67809    | 0.77541    |  11.8 | 66.01
Neigh   | 0          | 0          | 0          |   0.0 |  0.00
Comm    | 0.10614    | 0.2036     | 0.30106    |  21.6 | 19.82
Output  | 0.00015974 | 0.00043411 | 0.00070849 |   0.0 |  0.04
Modify  | 0.13543    | 0.13598    | 0.13653    |   0.1 | 13.24
Other   |            | 0.009197   |            |       |  0.90

Nlocal:             16 ave          17 max          15 min
Histogram: 1 0 0 0 0 0 0 0 0 1
Nghost:            914 ave         915 max         913 min
Histogram: 1 0 0 0 0 0 0 0 0 1
Neighs:           1611 ave        1998 max        1224 min
Histogram: 1 0 0 0 0 0 0 0 0 1

Total # of neighbors = 3222
Ave neighs/atom = 100.6875
Neighbor list builds = 0
Dangerous builds = 0
Setting up Verlet run ...
  Unit style    : metal
  Current step  : 0
  Time step     : 0.001
Per MPI rank memory allocation (min/avg/max) = 3.605 | 3.605 | 3.605 Mbytes
   Step          Time           Temp          PotEng         KinEng         TotEng        c_mytemp      c_mypress        Volume    
         0   0              1019.7369     -91.308865      4.0861514     -87.222714      1019.7369      649132.84      400.0711     
      1000   1              1057.6742     -92.315602      4.2381689     -88.077433      1057.6742      550052.66      402.65608    
      2000   2              991.67037     -91.865579      3.9736871     -87.891892      991.67037      498680.46      401.93294    
      3000   3              1056.9445     -91.79861       4.2352448     -87.563365      1056.9445      589547.72      400.88254    
      4000   4              1306.407      -93.715307      5.2348573     -88.48045       1306.407       402425.97      404.22884    
      5000   5              1191.1258     -92.823199      4.7729181     -88.050281      1191.1258      473395.42      403.04673    
      6000   6              1333.7632     -92.635528      5.3444751     -87.291052      1333.7632      543333.46      399.96294    
      7000   7              1282.1495     -92.747444      5.1376559     -87.609788      1282.1495      519578.18      401.39145    
      8000   8              1334.928      -92.834036      5.3491427     -87.484893      1334.928       491005.81      401.15165    
      9000   9              1225.0573     -92.443242      4.9088836     -87.534358      1225.0573      513423.41      400.90519    
     10000   10             1046.3989     -92.339187      4.1929878     -88.146199      1046.3989      519785.42      403.10658    
Loop time of 1.05026 on 2 procs for 10000 steps with 32 atoms

Performance: 822.651 ns/day, 0.029 hours/ns, 9521.424 timesteps/s
97.6% CPU use with 2 MPI tasks x 1 OpenMP threads

MPI task timing breakdown:
Section |  min time  |  avg time  |  max time  |%varavg| %total
---------------------------------------------------------------
Pair    | 0.60419    | 0.66864    | 0.7331     |   7.9 | 63.66
Neigh   | 0.00025312 | 0.00028815 | 0.00032318 |   0.0 |  0.03
Comm    | 0.10697    | 0.17186    | 0.23675    |  15.7 | 16.36
Output  | 7.4722e-05 | 0.00011613 | 0.00015753 |   0.0 |  0.01
Modify  | 0.19919    | 0.19974    | 0.2003     |   0.1 | 19.02
Other   |            | 0.009609   |            |       |  0.91

Nlocal:             16 ave          18 max          14 min
Histogram: 1 0 0 0 0 0 0 0 0 1
Nghost:            914 ave         916 max         912 min
Histogram: 1 0 0 0 0 0 0 0 0 1
Neighs:         1614.5 ave        1643 max        1586 min
Histogram: 1 0 0 0 0 0 0 0 0 1

Total # of neighbors = 3229
Ave neighs/atom = 100.90625
Neighbor list builds = 6
Dangerous builds = 0
1173.50318324002 499792.570196711 402.224926515322 -2.74763095267602
 
*******LOOP # 13*********
 
Setting up Verlet run ...
  Unit style    : metal
  Current step  : 0
  Time step     : 0.001
Per MPI rank memory allocation (min/avg/max) = 3.605 | 3.605 | 3.605 Mbytes
   Step          Time           Temp          PotEng         KinEng         TotEng        c_mytemp      c_mypress        Volume    
         0   0              1046.3989     -92.339187      4.1929878     -88.146199      1046.3989      519785.42      403.10658    
      1000   1              1195.2296     -92.613302      4.7893622     -87.82394       1195.2296      527654.32      402.47827    
      2000   2              1129.1863     -91.793191      4.5247224     -87.268469      1129.1863      590384.09      400.8632     
      3000   3              1186.2128     -92.860856      4.7532311     -88.107625      1186.2128      491579.99      403.52309    
      4000   4              962.18636     -92.189584      3.8555428     -88.334041      962.18636      504990.01      403.85423    
      5000   5              1018.2842     -91.960774      4.0803304     -87.880444      1018.2842      505174.95      402.6943     
      6000   6              1292.6844     -93.145065      5.1798698     -87.965195      1292.6844      422779.3       402.75498    
      7000   7              1451.6101     -92.992088      5.8166952     -87.175393      1451.6101      549104.14      400.45272    
      8000   8              1163.6042     -92.495432      4.662637      -87.832795      1163.6042      446545.82      402.10709    
      9000   9              993.49812     -92.036774      3.981011      -88.055763      993.49812      446397.95      403.329      
     10000   10             1357.4319     -92.531715      5.439317      -87.092398      1357.4319      550111.59      400.03492    
Loop time of 0.987869 on 2 procs for 10000 steps with 32 atoms

Performance: 874.610 ns/day, 0.027 hours/ns, 10122.801 timesteps/s
97.7% CPU use with 2 MPI tasks x 1 OpenMP threads

MPI task timing breakdown:
Section |  min time  |  avg time  |  max time  |%varavg| %total
---------------------------------------------------------------
Pair    | 0.6248     | 0.67743    | 0.73005    |   6.4 | 68.57
Neigh   | 9.2996e-05 | 0.00010434 | 0.00011569 |   0.0 |  0.01
Comm    | 0.10847    | 0.16179    | 0.21511    |  13.3 | 16.38
Output  | 7.5651e-05 | 0.00011649 | 0.00015733 |   0.0 |  0.01
Modify  | 0.13843    | 0.13903    | 0.13964    |   0.2 | 14.07
Other   |            | 0.009394   |            |       |  0.95

Nlocal:             16 ave          16 max          16 min
Histogram: 2 0 0 0 0 0 0 0 0 0
Nghost:            914 ave         914 max         914 min
Histogram: 2 0 0 0 0 0 0 0 0 0
Neighs:           1611 ave        1871 max        1351 min
Histogram: 1 0 0 0 0 0 0 0 0 1

Total # of neighbors = 3222
Ave neighs/atom = 100.6875
Neighbor list builds = 2
Dangerous builds = 0
Setting up Verlet run ...
  Unit style    : metal
  Current step  : 0
  Time step     : 0.001
Per MPI rank memory allocation (min/avg/max) = 3.605 | 3.605 | 3.605 Mbytes
   Step          Time           Temp          PotEng         KinEng         TotEng        c_mytemp      c_mypress        Volume    
         0   0              1357.4319     -92.531715      5.439317      -87.092398      1357.4319      550111.59      400.03492    
      1000   1              1293.5095     -92.446815      5.1831761     -87.263639      1293.5095      593438.11      400.40447    
      2000   2              1357.6654     -93.239015      5.4402529     -87.798762      1357.6654      467638.52      402.39584    
      3000   3              1075.2316     -91.664834      4.3085223     -87.356311      1075.2316      562327.81      401.00851    
      4000   4              1238.2667     -92.963135      4.9618144     -88.00132       1238.2667      440412.94      402.82733    
      5000   5              1291.0979     -92.622392      5.1735125     -87.448879      1291.0979      543546.28      400.91051    
      6000   6              1144.3937     -92.328318      4.5856595     -87.742658      1144.3937      518282.75      402.07661    
      7000   7              1103.5354     -92.408711      4.4219374     -87.986773      1103.5354      460927.61      402.57443    
      8000   8              1120.6889     -92.841507      4.4906725     -88.350835      1120.6889      419404.78      403.92269    
      9000   9              1217.602      -92.406503      4.8790098     -87.527493      1217.602       513359.69      401.49351    
     10000   10             1372.9548     -92.870583      5.5015183     -87.369065      1372.9548      516790.39      401.27609    
Loop time of 1.03697 on 2 procs for 10000 steps with 32 atoms

Performance: 833.199 ns/day, 0.029 hours/ns, 9643.509 timesteps/s
97.6% CPU use with 2 MPI tasks x 1 OpenMP threads

MPI task timing breakdown:
Section |  min time  |  avg time  |  max time  |%varavg| %total
---------------------------------------------------------------
Pair    | 0.6297     | 0.67339    | 0.71709    |   5.3 | 64.94
Neigh   | 0.00031331 | 0.000352   | 0.0003907  |   0.0 |  0.03
Comm    | 0.10757    | 0.15194    | 0.19632    |  11.4 | 14.65
Output  | 7.7859e-05 | 0.00011804 | 0.00015823 |   0.0 |  0.01
Modify  | 0.20096    | 0.20158    | 0.2022     |   0.1 | 19.44
[...]
      1000   1              1594.1493     -96.073843      6.3878589     -89.685984      1594.1493     -17243.011      677.85334    
      2000   2              1597.9565     -96.045593      6.403115      -89.642478      1597.9565      6987.4034      649.09143    
      3000   3              1617.3366     -96.04541       6.4807722     -89.564638      1617.3366      14962.735      642.32461    
      4000   4              1642.8418     -97.688753      6.5829731     -91.105779      1642.8418      7718.0372      625.1501     
      5000   5              1751.9504     -97.780658      7.0201781     -90.76048       1751.9504     -2526.1706      633.65336    
      6000   6              1841.3857     -98.020428      7.3785513     -90.641877      1841.3857      5600.0121      634.80769    
      7000   7              1604.9754     -97.95825       6.4312399     -91.52701       1604.9754      2255.219       620.48015    
      8000   8              1384.3152     -96.932184      5.5470403     -91.385143      1384.3152      1698.5515      643.89112    
      9000   9              1356.9568     -95.906405      5.4374136     -90.468992      1356.9568     -7153.5816      665.12678    
     10000   10             1623.0629     -97.443245      6.5037177     -90.939528      1623.0629      5467.1066      633.94203    
Loop time of 0.701393 on 2 procs for 10000 steps with 32 atoms

Performance: 1231.834 ns/day, 0.019 hours/ns, 14257.336 timesteps/s
97.5% CPU use with 2 MPI tasks x 1 OpenMP threads

MPI task timing breakdown:
Section |  min time  |  avg time  |  max time  |%varavg| %total
---------------------------------------------------------------
Pair    | 0.42584    | 0.4273     | 0.42876    |   0.2 | 60.92
Neigh   | 0.0062448  | 0.0062768  | 0.0063087  |   0.0 |  0.89
Comm    | 0.086723   | 0.087348   | 0.087973   |   0.2 | 12.45
Output  | 6.6463e-05 | 0.00010228 | 0.00013809 |   0.0 |  0.01
Modify  | 0.17043    | 0.17195    | 0.17347    |   0.4 | 24.52
Other   |            | 0.008413   |            |       |  1.20

Nlocal:             16 ave          16 max          16 min
Histogram: 2 0 0 0 0 0 0 0 0 0
Nghost:            689 ave         689 max         689 min
Histogram: 2 0 0 0 0 0 0 0 0 0
Neighs:         1015.5 ave        1030 max        1001 min
Histogram: 1 0 0 0 0 0 0 0 0 1

Total # of neighbors = 2031
Ave neighs/atom = 63.46875
Neighbor list builds = 196
Dangerous builds = 0
1570.06274787553 -236.321070603234 642.892022376726 -2.8338628568716
 
*******LOOP2 # 19*********
 
Setting up Verlet run ...
  Unit style    : metal
  Current step  : 0
  Time step     : 0.001
Per MPI rank memory allocation (min/avg/max) = 3.707 | 3.707 | 3.707 Mbytes
   Step          Time           Temp          PotEng         KinEng         TotEng        c_mytemp      c_mypress        Volume    
         0   0              1623.0629     -97.443245      6.5037177     -90.939528      1623.0629      5467.1066      633.94203    
      1000   1              1340.9908     -96.7045        5.3734365     -91.331063      1340.9908      14615.156      621.37968    
      2000   2              1077.9012     -96.549485      4.3192196     -92.230265      1077.9012      17637.703      619.6323     
      3000   3              1487.323      -97.06504       5.9597992     -91.105241      1487.323      -2617.6403      638.79542    
      4000   4              1539.0561     -96.585548      6.1670971     -90.418451      1539.0561     -984.41579      655.88068    
      5000   5              1340.4993     -96.989761      5.371467      -91.618294      1340.4993      10651.882      631.41561    
      6000   6              1448.5535     -97.042046      5.8044471     -91.237599      1448.5535     -10878.669      653.45397    
      7000   7              1432.8139     -96.794639      5.7413776     -91.053261      1432.8139      10310.259      629.54842    
      8000   8              1378.5997     -97.030726      5.524138      -91.506588      1378.5997     -6049.6352      638.36745    
      9000   9              1568.493      -97.468736      6.2850527     -91.183683      1568.493      -20012.987      651.21864    
     10000   10             1420.9626     -95.846828      5.6938888     -90.152939      1420.9626     -3313.7822      675.92699    
Loop time of 0.652888 on 2 procs for 10000 steps with 32 atoms

Performance: 1323.351 ns/day, 0.018 hours/ns, 15316.566 timesteps/s
97.3% CPU use with 2 MPI tasks x 1 OpenMP threads

MPI task timing breakdown:
Section |  min time  |  avg time  |  max time  |%varavg| %total
---------------------------------------------------------------
Pair    | 0.42698    | 0.42951    | 0.43204    |   0.4 | 65.79
Neigh   | 0.006077   | 0.0060782  | 0.0060793  |   0.0 |  0.93
Comm    | 0.085487   | 0.088823   | 0.092158   |   1.1 | 13.60
Output  | 7.0535e-05 | 0.0001054  | 0.00014026 |   0.0 |  0.02
Modify  | 0.11864    | 0.12008    | 0.12153    |   0.4 | 18.39
Other   |            | 0.008288   |            |       |  1.27

Nlocal:             16 ave          16 max          16 min
Histogram: 2 0 0 0 0 0 0 0 0 0
Nghost:          657.5 ave         659 max         656 min
Histogram: 1 0 0 0 0 0 0 0 0 1
Neighs:            974 ave        1011 max         937 min
Histogram: 1 0 0 0 0 0 0 0 0 1

Total # of neighbors = 1948
Ave neighs/atom = 60.875
Neighbor list builds = 189
Dangerous builds = 0
Setting up Verlet run ...
  Unit style    : metal
  Current step  : 0
  Time step     : 0.001
Per MPI rank memory allocation (min/avg/max) = 3.707 | 3.707 | 3.707 Mbytes
   Step          Time           Temp          PotEng         KinEng         TotEng        c_mytemp      c_mypress        Volume    
         0   0              1420.9626     -95.846828      5.6938888     -90.152939      1420.9626     -3313.7822      675.92699    
      1000   1              1359.2808     -96.826772      5.4467257     -91.380047      1359.2808      11892.197      627.48134    
      2000   2              1763.4021     -98.293537      7.0660658     -91.227471      1763.4021     -6783.1541      634.46623    
      3000   3              1685.184      -97.871086      6.7526411     -91.118445      1685.184      -4064.8642      634.74206    
      4000   4              1544.7421     -97.054967      6.189881      -90.865086      1544.7421      411.80883      640.5085     
      5000   5              1571.509      -97.021672      6.2971381     -90.724534      1571.509      -7917.3116      654.18828    
      6000   6              1338.7721     -96.349227      5.3645463     -90.984681      1338.7721      4406.5393      650.34179    
      7000   7              1380.2017     -97.519852      5.5305571     -91.989295      1380.2017      21477.504      610.96674    
      8000   8              1473.8385     -97.430115      5.9057659     -91.524349      1473.8385     -9177.6709      636.15411    
      9000   9              1577.2782     -97.129396      6.3202556     -90.809141      1577.2782     -8305.1364      649.1295     
     10000   10             1264.3699     -95.928918      5.0664116     -90.862506      1264.3699      7186.6597      644.06728    
Loop time of 0.696372 on 2 procs for 10000 steps with 32 atoms

Performance: 1240.716 ns/day, 0.019 hours/ns, 14360.142 timesteps/s
97.5% CPU use with 2 MPI tasks x 1 OpenMP threads

MPI task timing breakdown:
Section |  min time  |  avg time  |  max time  |%varavg| %total
---------------------------------------------------------------
Pair    | 0.42089    | 0.42346    | 0.42603    |   0.4 | 60.81
Neigh   | 0.0059408  | 0.0059817  | 0.0060226  |   0.1 |  0.86
Comm    | 0.087149   | 0.088904   | 0.09066    |   0.6 | 12.77
Output  | 0.00014569 | 0.00036338 | 0.00058107 |   0.0 |  0.05
Modify  | 0.16767    | 0.16946    | 0.17124    |   0.4 | 24.33
Other   |            | 0.008204   |            |       |  1.18

Nlocal:             16 ave          17 max          15 min
Histogram: 1 0 0 0 0 0 0 0 0 1
Nghost:            680 ave         681 max         679 min
Histogram: 1 0 0 0 0 0 0 0 0 1
Neighs:         1001.5 ave        1071 max         932 min
Histogram: 1 0 0 0 0 0 0 0 0 1

Total # of neighbors = 2003
Ave neighs/atom = 62.59375
Neighbor list builds = 189
Dangerous builds = 0
1546.41418714137 -329.00780654683 642.391929338982 -2.84135689571628
 
*******LOOP2 # 20*********
 
Setting up Verlet run ...
  Unit style    : metal
  Current step  : 0
  Time step     : 0.001
Per MPI rank memory allocation (min/avg/max) = 3.707 | 3.707 | 3.707 Mbytes
   Step          Time           Temp          PotEng         KinEng         TotEng        c_mytemp      c_mypress        Volume    
         0   0              1264.3699     -95.928918      5.0664116     -90.862506      1264.3699      7186.6597      644.06728    
      1000   1              1391.4531     -96.366952      5.5756424     -90.79131       1391.4531      9997.7594      645.25148    
      2000   2              1502.838      -97.577341      6.0219688     -91.555372      1502.838       1712.5484      624.07682    
      3000   3              1617.213      -97.290544      6.4802767     -90.810267      1617.213      -1003.0089      635.39519    
      4000   4              1435.009      -96.561727      5.7501734     -90.811554      1435.009       10113.757      643.38724    
      5000   5              1552.3311     -97.262507      6.2202907     -91.042216      1552.3311      15423.319      650.91877    
      6000   6              1449.8111     -95.731153      5.8094865     -89.921667      1449.8111     -3011.6811      660.60303    
      7000   7              1373.1037     -96.126887      5.5021151     -90.624771      1373.1037      14007.611      642.28761    
      8000   8              1768.3825     -97.621071      7.0860226     -90.535048      1768.3825      16369.795      625.00378    
      9000   9              1499.2318     -97.265399      6.0075185     -91.25788       1499.2318     -6823.5875      643.59022    
     10000   10             1261.8889     -96.275707      5.05647       -91.219237      1261.8889      10728.627      631.50891    
Loop time of 0.62232 on 2 procs for 10000 steps with 32 atoms

Performance: 1388.352 ns/day, 0.017 hours/ns, 16068.894 timesteps/s
97.1% CPU use with 2 MPI tasks x 1 OpenMP threads

MPI task timing breakdown:
Section |  min time  |  avg time  |  max time  |%varavg| %total
---------------------------------------------------------------
Pair    | 0.40752    | 0.4105     | 0.41349    |   0.5 | 65.96
Neigh   | 0.0057543  | 0.0057544  | 0.0057544  |   0.0 |  0.92
Comm    | 0.0816     | 0.083878   | 0.086157   |   0.8 | 13.48
Output  | 7.4408e-05 | 0.00010708 | 0.00013976 |   0.0 |  0.02
Modify  | 0.1136     | 0.11451    | 0.11541    |   0.3 | 18.40
Other   |            | 0.007571   |            |       |  1.22

Nlocal:             16 ave          17 max          15 min
Histogram: 1 0 0 0 0 0 0 0 0 1
Nghost:            689 ave         697 max         681 min
Histogram: 1 0 0 0 0 0 0 0 0 1
Neighs:         1023.5 ave        1091 max         956 min
Histogram: 1 0 0 0 0 0 0 0 0 1

Total # of neighbors = 2047
Ave neighs/atom = 63.96875
Neighbor list builds = 188
Dangerous builds = 0
Setting up Verlet run ...
  Unit style    : metal
  Current step  : 0
  Time step     : 0.001
Per MPI rank memory allocation (min/avg/max) = 3.707 | 3.707 | 3.707 Mbytes
   Step          Time           Temp          PotEng         KinEng         TotEng        c_mytemp      c_mypress        Volume    
         0   0              1261.8889     -96.275707      5.05647       -91.219237      1261.8889      10728.627      631.50891    
      1000   1              1777.3783     -98.018698      7.1220695     -90.896629      1777.3783      3062.6021      622.26433    
      2000   2              1698.6365     -98.026268      6.806546      -91.219722      1698.6365     -7397.6558      636.39994    
      3000   3              1460.5771     -96.914427      5.8526265     -91.061801      1460.5771     -10266.565      661.80424    
      4000   4              1666.0447     -98.195283      6.6759485     -91.519334      1666.0447      516.51008      631.52055    
      5000   5              1386.3638     -97.329003      5.555249      -91.773754      1386.3638     -12589.476      647.8293     
      6000   6              1535.9317     -98.168652      6.1545775     -92.014075      1535.9317      12739.452      623.06825    
      7000   7              1659.7036     -97.964949      6.6505392     -91.31441       1659.7036     -7810.6691      631.50954    
      8000   8              1436.0229     -97.609997      5.7542364     -91.855761      1436.0229      2589.3854      625.89769    
      9000   9              1296.9146     -96.003054      5.1968205     -90.806234      1296.9146     -2934.3591      670.29405    
     10000   10             1844.8813     -97.999312      7.3925583     -90.606754      1844.8813     -13762.9        642.12333    
Loop time of 0.670937 on 2 procs for 10000 steps with 32 atoms

Performance: 1287.752 ns/day, 0.019 hours/ns, 14904.535 timesteps/s
97.9% CPU use with 2 MPI tasks x 1 OpenMP threads

MPI task timing breakdown:
Section |  min time  |  avg time  |  max time  |%varavg| %total
---------------------------------------------------------------
Pair    | 0.40761    | 0.40899    | 0.41037    |   0.2 | 60.96
Neigh   | 0.0057354  | 0.0057386  | 0.0057419  |   0.0 |  0.86
Comm    | 0.084277   | 0.084833   | 0.085389   |   0.2 | 12.64
Output  | 6.4312e-05 | 9.9353e-05 | 0.00013439 |   0.0 |  0.01
Modify  | 0.16174    | 0.16324    | 0.16475    |   0.4 | 24.33
Other   |            | 0.008032   |            |       |  1.20

Nlocal:             16 ave          17 max          15 min
Histogram: 1 0 0 0 0 0 0 0 0 1
Nghost:            686 ave         687 max         685 min
Histogram: 1 0 0 0 0 0 0 0 0 1
Neighs:         1001.5 ave        1064 max         939 min
Histogram: 1 0 0 0 0 0 0 0 0 1

Total # of neighbors = 2003
Ave neighs/atom = 62.59375
Neighbor list builds = 188
Dangerous builds = 0
1519.83737782417 -263.10196502633 640.14632918413 -2.85008246691818
 
*******LOOP2 # 21*********
 
Setting up Verlet run ...
  Unit style    : metal
  Current step  : 0
  Time step     : 0.001
Per MPI rank memory allocation (min/avg/max) = 3.707 | 3.707 | 3.707 Mbytes
   Step          Time           Temp          PotEng         KinEng         TotEng        c_mytemp      c_mypress        Volume    
         0   0              1844.8813     -97.999312      7.3925583     -90.606754      1844.8813     -13762.9        642.12333    
      1000   1              1195.8705     -96.64498       4.7919304     -91.853049      1195.8705     -2611.3287      640.49261    
      2000   2              1363.7038     -97.617731      5.4644489     -92.153282      1363.7038      6026.071       619.60116    
      3000   3              1709.0458     -98.488915      6.8482566     -91.640658      1709.0458     -4632.3608      631.59921    
      4000   4              1618.2049     -97.675415      6.4842513     -91.191164      1618.2049     -18283.756      676.53271    
      5000   5              1376.8086     -96.828813      5.516961      -91.311852      1376.8086      6399.2733      638.37313    
      6000   6              1483.147      -97.792669      5.9430659     -91.849603      1483.147       3865.9845      628.92435    
      7000   7              1460.176      -96.66338       5.8510195     -90.812361      1460.176      -5397.1645      661.34978    
      8000   8              1474.8018     -97.785132      5.909626      -91.875506      1474.8018      5900.4374      639.99895    
      9000   9              1603.4417     -98.001813      6.4250945     -91.576719      1603.4417      1512.5124      634.10004    
     10000   10             1688.717      -98.318435      6.766798      -91.551637      1688.717      -13742.581      651.15031    
Loop time of 0.62417 on 2 procs for 10000 steps with 32 atoms

Performance: 1384.239 ns/day, 0.017 hours/ns, 16021.282 timesteps/s
97.6% CPU use with 2 MPI tasks x 1 OpenMP threads

MPI task timing breakdown:
Section |  min time  |  avg time  |  max time  |%varavg| %total
---------------------------------------------------------------
Pair    | 0.4054     | 0.41116    | 0.41692    |   0.9 | 65.87
Neigh   | 0.0056643  | 0.0057184  | 0.0057725  |   0.1 |  0.92
Comm    | 0.079301   | 0.084333   | 0.089366   |   1.7 | 13.51
Output  | 0.00014979 | 0.00036977 | 0.00058976 |   0.0 |  0.06
Modify  | 0.11366    | 0.11494    | 0.11622    |   0.4 | 18.41
Other   |            | 0.007647   |            |       |  1.23

Nlocal:             16 ave          16 max          16 min
Histogram: 2 0 0 0 0 0 0 0 0 0
Nghost:          678.5 ave         680 max         677 min
Histogram: 1 0 0 0 0 0 0 0 0 1
Neighs:          993.5 ave        1022 max         965 min
Histogram: 1 0 0 0 0 0 0 0 0 1

Total # of neighbors = 1987
Ave neighs/atom = 62.09375
Neighbor list builds = 184
Dangerous builds = 0
Setting up Verlet run ...
  Unit style    : metal
  Current step  : 0
  Time step     : 0.001
Per MPI rank memory allocation (min/avg/max) = 3.707 | 3.707 | 3.707 Mbytes
   Step          Time           Temp          PotEng         KinEng         TotEng        c_mytemp      c_mypress        Volume    
         0   0              1688.717      -98.318435      6.766798      -91.551637      1688.717      -13742.581      651.15031    
      1000   1              1372.6462     -96.3634        5.5002819     -90.863119      1372.6462      21945.182      618.57552    
      2000   2              1489.5476     -96.738024      5.9687134     -90.769311      1489.5476     -2828.5608      663.93474    
      3000   3              1438.8416     -97.575148      5.765531      -91.809617      1438.8416     -2871.8047      644.5035     
      4000   4              1267.0748     -96.54565       5.0772506     -91.4684        1267.0748     -1936.4513      641.13241    
      5000   5              1382.3072     -97.231945      5.5389942     -91.692951      1382.3072      8229.3968      627.47793    
      6000   6              1626.8314     -97.474947      6.5188182     -90.956129      1626.8314     -10443.76       644.7155     
      7000   7              1273.2901     -97.056269      5.1021555     -91.954113      1273.2901      15515.798      628.56638    
      8000   8              1538.6304     -97.942198      6.1653914     -91.776807      1538.6304      7446.0425      622.10797    
      9000   9              1303.4377     -96.960856      5.2229589     -91.737897      1303.4377     -325.71543      640.5231     
     10000   10             1103.2059     -95.936149      4.4206172     -91.515532      1103.2059     -4982.1948      655.04601    
Loop time of 0.673582 on 2 procs for 10000 steps with 32 atoms

Performance: 1282.694 ns/day, 0.019 hours/ns, 14846.000 timesteps/s
97.8% CPU use with 2 MPI tasks x 1 OpenMP threads

MPI task timing breakdown:
Section |  min time  |  avg time  |  max time  |%varavg| %total
---------------------------------------------------------------
Pair    | 0.40878    | 0.40986    | 0.41094    |   0.2 | 60.85
Neigh   | 0.0058334  | 0.0058354  | 0.0058374  |   0.0 |  0.87
Comm    | 0.083076   | 0.084884   | 0.086692   |   0.6 | 12.60
Output  | 0.00014055 | 0.00032459 | 0.00050863 |   0.0 |  0.05
Modify  | 0.1634     | 0.16457    | 0.16574    |   0.3 | 24.43
Other   |            | 0.008107   |            |       |  1.20

Nlocal:             16 ave          16 max          16 min
Histogram: 2 0 0 0 0 0 0 0 0 0
Nghost:          660.5 ave         662 max         659 min
Histogram: 1 0 0 0 0 0 0 0 0 1
Neighs:          978.5 ave         994 max         963 min
Histogram: 1 0 0 0 0 0 0 0 0 1

Total # of neighbors = 1957
Ave neighs/atom = 61.15625
Neighbor list builds = 188
Dangerous builds = 0
1494.40235350832 -325.063577923148 636.368444777711 -2.85981236521422
Total wall time: 0:01:14
