LAMMPS (23 Jun 2022 - Update 4)
OMP_NUM_THREADS environment is not set. Defaulting to 1 thread. (src/src/comm.cpp:98)
  using 1 OpenMP thread(s) per MPI task
Lattice spacing in x,y,z = 4.04525 4.04525 4.04525
Created orthogonal box = (0 0 0) to (8.0905 8.0905 8.0905)
  1 by 1 by 2 MPI processor grid
Created 32 atoms
  using lattice units in orthogonal box = (0 0 0) to (8.0905 8.0905 8.0905)
  create_atoms CPU = 0.000 seconds
Reading eam/alloy potential file ./Al_mm.eam.fs with DATE: 2007-06-11
Running simulation at Pressure: 0 Pa
Neighbor list info ...
  update every 1 steps, delay 10 steps, check yes
  max neighbors/atom: 2000, page size: 100000
  master list distance cutoff = 8.5
  ghost atom cutoff = 8.5
  binsize = 4.25, bins = 2 2 2
  1 neighbor lists, perpetual/occasional/extra = 1 0 0
  (1) pair eam/alloy, perpetual
      attributes: half, newton on
      pair build: half/bin/atomonly/newton
      stencil: half/bin/3d
      bin: standard
Setting up Verlet run ...
  Unit style    : metal
  Current step  : 0
  Time step     : 0.001
Per MPI rank memory allocation (min/avg/max) = 3.221 | 3.221 | 3.221 Mbytes
   Step          Temp          Press          Volume         PotEng         KinEng         TotEng    
         0   300            2430.0276      529.57331     -109.14102      1.2021193     -107.9389     
       100   196.88745     -10217.373      542.09687     -108.51048      0.7889407     -107.72154    
       200   143.37758      12764.664      530.71193     -107.98935      0.57452323    -107.41483    
       300   91.057472     -2517.8952      543.79312     -107.41793      0.36487317    -107.05306    
       400   388.94408      7924.4113      533.85211     -108.2005       1.558524      -106.64198    
       500   410.66443     -12283.219      547.51942     -108.08204      1.6455588     -106.43648    
       600   366.31198      7431.5722      535.62788     -107.96167      1.4678357     -106.49383    
       700   227.1916      -7429.9614      545.78303     -107.68763      0.91037141    -106.77725    
       800   305.96312      8498.6876      533.00142     -108.18434      1.226014      -106.95833    
       900   267.69446     -8051.8179      544.35323     -108.02377      1.072669      -106.9511     
      1000   317.44363      10635.664      534.7773      -107.72987      1.2720171     -106.45785    
      1100   223.70635     -6889.5933      548.03553     -107.21811      0.89640577    -106.32171    
      1200   386.68995      8753.023       534.39592     -108.04041      1.5494916     -106.49091    
      1300   351.95443     -12132.498      546.79945     -108.17367      1.4103041     -106.76337    
      1400   313.42867      11073.997      532.1835      -108.06394      1.2559289     -106.80801    
      1500   191.22933     -9919.2558      547.95783     -107.55244      0.76626825    -106.78617    
      1600   287.04574      15120.648      531.38994     -107.77689      1.1502108     -106.62667    
      1700   435.091       -16466.139      551.84546     -107.81733      1.7434377     -106.07389    
      1800   484.38424      11700.842      534.21524     -107.89823      1.9409589     -105.95727    
      1900   295.25885     -13125.378      550.66193     -107.64608      1.1831213     -106.46296    
      2000   252.75073      19478.98       529.47438     -107.66334      1.0127885     -106.65055    
      2100   276.45862     -18441.776      551.5676      -107.92257      1.1077875     -106.81478    
      2200   367.51398      17098.855      527.20965     -108.2827       1.4726522     -106.81005    
      2300   287.94136     -20298.735      554.0108      -107.81032      1.1537996     -106.65652    
      2400   319.62196      26028.26       527.56619     -107.52356      1.2807458     -106.24281    
      2500   312.7923      -21056.173      556.63121     -107.52919      1.2533789     -106.27581    
      2600   363.26658      21002.11       526.10706     -108.06981      1.4556326     -106.61418    
      2700   260.9515      -22150.63       554.48509     -107.87193      1.0456495     -106.82629    
      2800   247.63675      26608.723      525.0903      -107.74871      0.99229643    -106.75641    
      2900   289.107       -20773.245      554.42296     -107.78711      1.1584704     -106.62864    
      3000   416.99878      19853.328      527.94776     -108.01759      1.670941      -106.34665    
      3100   345.17685     -21191.045      555.26146     -107.66013      1.3831459     -106.27698    
      3200   253.26055      21945.971      528.28853     -107.62429      1.0148314     -106.60946    
      3300   234.59211     -14867.896      549.83403     -107.88722      0.94002571    -106.9472     
      3400   314.52079      15118.07       529.28522     -108.17668      1.2603051     -106.91637    
      3500   323.77273     -14578.081      549.41558     -107.95822      1.2973782     -106.66084    
      3600   329.99834      13367.457      533.41609     -107.68082      1.3223246     -106.35849    
      3700   273.19917     -9911.0745      548.64581     -107.54841      1.0947267     -106.45368    
      3800   368.29691      8467.5831      534.52519     -108.0588       1.4757895     -106.58301    
      3900   273.10844     -7098.14        545.80286     -107.83345      1.0943631     -106.73908    
      4000   312.76295      8865.3921      534.40962     -108.04228      1.2532613     -106.78902    
      4100   266.16491     -8610.007       545.38969     -107.92331      1.06654       -106.85677    
      4200   307.24833      7388.2729      534.39128     -108.11486      1.2311639     -106.8837     
      4300   268.65867     -8204.0621      545.5077      -107.86951      1.0765326     -106.79298    
      4400   309.93413      10176.114      535.3718      -107.77151      1.241926      -106.52958    
      4500   272.04372     -6487.981       546.88039     -107.5156       1.0900967     -106.4255     
      4600   356.80368      6661.8604      535.9724      -108.06381      1.4297353     -106.63407    
      4700   307.77663     -8375.7567      543.4403      -108.2593       1.2332808     -107.02602    
      4800   322.57415      3365.947       535.4763      -108.29638      1.2925754     -107.0038     
      4900   258.40651     -5280.6773      543.73351     -107.8149       1.0354515     -106.77945    
      5000   266.04503      7552.1262      537.19036     -107.63587      1.0660596     -106.56981    
      5100   288.6224      -4091.0135      544.01134     -107.73974      1.1565286     -106.58321    
      5200   326.75305      5690.0614      536.60602     -107.97239      1.3093206     -106.66307    
      5300   332.32986     -7830.3497      544.16345     -108.13155      1.3316672     -106.79988    
      5400   289.20966      5481.5867      535.72326     -108.09011      1.1588818     -106.93123    
      5500   231.47335     -5805.6995      541.83083     -108.11096      0.92752862    -107.18343    
      5600   244.44667      5086.7096      534.59797     -108.17903      0.97951358    -107.19952    
      5700   296.82687     -6341.3487      543.61387     -108.00643      1.1894044     -106.81702    
      5800   355.54608      3870.869       537.72019     -108.02375      1.4246961     -106.59905    
      5900   301.41168     -4194.8722      543.82135     -107.80979      1.207776      -106.60202    
      6000   275.78115      6516.0163      536.35355     -107.86753      1.1050729     -106.76246    
      6100   257.97695     -7435.8306      543.2461      -108.12668      1.0337303     -107.09295    
      6200   274.34804      5413.9058      534.05922     -108.28967      1.0993303     -107.19034    
      6300   283.96398     -6373.5653      544.15408     -107.87594      1.137862      -106.73808    
      6400   319.63735      6337.6019      537.50467     -107.78123      1.2808075     -106.50042    
      6500   279.85509     -4437.688       544.60221     -107.72371      1.1213974     -106.60231    
      6600   328.19207      5009.5682      536.11409     -108.14045      1.3150868     -106.82537    
      6700   249.68203     -5737.4483      542.67135     -108.04074      1.000492      -107.04025    
      6800   281.27406      5059.0461      535.556       -108.11081      1.1270833     -106.98373    
      6900   290.49401     -4805.3002      545.07136     -107.63266      1.1640282     -106.46863    
      7000   393.17332      4422.5746      537.93702     -107.94663      1.5754708     -106.37116    
      7100   325.12534     -6519.0359      544.32855     -107.95705      1.3027982     -106.65426    
      7200   260.76776      7850.1716      534.98678     -107.93023      1.0449132     -106.88532    
      7300   255.10369     -6840.8444      544.14916     -107.93547      1.0222169     -106.91325    
      7400   312.03629      7009.5169      535.29026     -108.04963      1.2503495     -106.79928    
      7500   285.90627     -7691.7719      545.56021     -107.88719      1.1456449     -106.74154    
      7600   296.93478      9764.5728      534.12675     -107.90214      1.1898368     -106.7123     
      7700   256.12938     -10192.252      547.2432      -107.7537       1.0263269     -106.72737    
      7800   353.88853      9514.047       533.46195     -108.07092      1.4180542     -106.65287    
      7900   318.64435     -12097.285      548.73042     -107.80936      1.2768284     -106.53253    
      8000   339.9565       12534.785      533.36805     -107.82862      1.3622276     -106.46639    
      8100   256.33743     -11098.207      548.74694     -107.71884      1.0271606     -106.69168    
      8200   319.82157      12791.951      530.5602      -108.22561      1.2815457     -106.94406    
      8300   240.09108     -14169.502      548.48545     -107.99707      0.96206042    -107.03501    
      8400   289.254        18426.074      529.74083     -107.77066      1.1590594     -106.6116     
      8500   250.2911      -15093.582      553.37508     -107.3236       1.0029326     -106.32067    
      8600   399.43978      17048.264      529.56855     -108.03308      1.600581      -106.4325     
      8700   315.08088     -19711.136      552.43463     -108.00374      1.2625494     -106.74119    
      8800   305.30115      18136.765      528.29258     -108.04036      1.2233614     -106.81699    
      8900   204.06006     -14405.366      551.11783     -107.6135       0.81768181    -106.79581    
      9000   376.72551      18018.44       530.31765     -107.79293      1.5095634     -106.28336    
      9100   388.06994     -18865.436      555.35627     -107.62244      1.5550213     -106.06742    
      9200   412.68048      14633.126      531.45756     -108.00804      1.6536373     -106.3544     
      9300   258.02436     -14666.504      550.70207     -107.68774      1.0339202     -106.65382    
      9400   293.95661      16222.422      530.31417     -107.92489      1.1779031     -106.74699    
      9500   282.67818     -15627.596      549.9851      -107.96886      1.1327097     -106.83615    
      9600   340.09058      14313.117      530.70423     -108.06771      1.3627649     -106.70495    
      9700   305.16626     -12800.406      551.15395     -107.55338      1.2228209     -106.33056    
      9800   343.85698      15087.107      533.64402     -107.63485      1.3778571     -106.25699    
      9900   296.75401     -12628.52       549.23686     -107.83775      1.1891125     -106.64864    
     10000   345.5082       11124.699      531.81543     -108.21654      1.3844736     -106.83207    
     10100   241.73512     -10674.68       547.50671     -107.81277      0.96864821    -106.84413    
     10200   260.86209      12348.904      533.27344     -107.72953      1.0452912     -106.68424    
     10300   311.40259     -10185.041      548.32859     -107.75384      1.2478103     -106.50603    
     10400   426.1581       9820.244       536.22427     -107.72389      1.707643      -106.01625    
     10500   369.50849     -11455.348      549.89408     -107.70294      1.4806444     -106.2223     
     10600   308.99924      11687.266      533.17431     -107.90267      1.2381799     -106.66449    
     10700   277.98755     -9868.1812      546.81191     -107.8884       1.113914      -106.77449    
     10800   334.82224      7781.373       534.47416     -108.11957      1.3416543     -106.77792    
     10900   310.91459     -9890.4925      546.13796     -107.98846      1.2458548     -106.74261    
     11000   307.46288      9642.4848      535.10648     -107.77509      1.2320236     -106.54307    
     11100   273.66063     -5443.3027      546.9062      -107.45143      1.0965758     -106.35485    
     11200   339.08405      7788.6278      536.93854     -107.80191      1.3587317     -106.44318    
     11300   353.53854     -10945.438      545.22638     -108.27953      1.4166517     -106.86288    
     11400   277.1337       7543.4614      534.36497     -108.09792      1.1104926     -106.98743    
     11500   261.58327     -7611.1695      544.99721     -107.91474      1.048181      -106.86656    
     11600   265.26133      10192.92       535.51859     -107.68683      1.0629192     -106.62391    
     11700   322.80341     -7046.1778      545.91225     -107.82595      1.2934941     -106.53245    
     11800   324.44079      7466.105       535.8337      -107.88577      1.3000552     -106.58571    
     11900   306.42449     -8327.0718      545.53712     -107.92999      1.2278627     -106.70213    
     12000   336.21372      5599.2083      535.14308     -108.17942      1.34723       -106.83219    
     12100   222.73756     -7354.6923      544.67259     -107.89618      0.89252377    -107.00366    
     12200   260.23628      9135.1117      533.3311      -108.06108      1.0427836     -107.0183     
     12300   249.97903     -6227.5012      545.4524      -107.73725      1.0016821     -106.73557    
     12400   357.7347       7847.1082      536.56771     -107.86213      1.433466      -106.42866    
     12500   361.04016     -9608.9994      546.64317     -107.92944      1.4467112     -106.48272    
     12600   322.4576       4565.3783      536.25493     -108.10595      1.2921084     -106.81384    
     12700   261.3302      -6292.9559      542.4488      -108.12771      1.047167      -107.08054    
     12800   268.56193      4726.5452      536.06509     -108.09926      1.076145      -107.02312    
     12900   254.31386     -3193.0962      542.80545     -107.87485      1.019052      -106.8558     
     13000   301.74472      5908.1367      537.1182      -107.84843      1.2091106     -106.63932    
     13100   291.59701     -4139.3546      544.24648     -107.73257      1.168448      -106.56412    
     13200   335.25484      3064.5418      538.38691     -108.0106       1.3433878     -106.66721    
     13300   286.30605     -5406.4132      541.84634     -108.20934      1.1472468     -107.06209    
     13400   261.81878      2853.6314      536.53977     -108.17379      1.0491247     -107.12467    
     13500   280.84371     -3035.1613      541.56222     -107.96941      1.1253589     -106.84405    
     13600   293.66941      2630.7368      539.78227     -107.76301      1.1767523     -106.58625    
     13700   325.72765     -2092.8913      542.7289      -107.8721       1.3052117     -106.56689    
     13800   302.02702      2980.5532      539.06024     -107.91721      1.2102418     -106.70697    
     13900   270.51123     -2881.9191      540.93305     -108.10171      1.0839559     -107.01776    
     14000   212.96331      2880.1708      536.16794     -108.19371      0.85335772    -107.34035    
     14100   224.4773      -3284.5445      540.24528     -108.15117      0.89949504    -107.25167    
     14200   300.44748     -25.164493      538.43371     -108.23792      1.2039124     -107.034      
     14300   318.19787     -2858.9139      541.16515     -108.11145      1.2750394     -106.83641    
     14400   287.6499       3901.3057      539.38406     -107.74565      1.1526317     -106.59302    
     14500   283.17986      325.67927      542.19088     -107.61045      1.13472       -106.47573    
     14600   333.47278     -401.15258      540.44716     -107.98573      1.3362469     -106.64948    
     14700   314.69511     -2937.2924      539.66144     -108.31246      1.2610036     -107.05145    
     14800   259.55741      455.65162      538.52172     -108.10338      1.0400633     -107.06332    
     14900   258.3548       131.894        540.23057     -107.89752      1.0352443     -106.86228    
     15000   309.55742      20.673491      540.56183     -107.92897      1.2404165     -106.68855    
     15100   336.52076     -1311.3299      541.28631     -107.9996       1.3484604     -106.65114    
     15200   313.0027       340.4091       540.60725     -107.95088      1.254222      -106.69666    
     15300   224.61581      2773.7031      539.56824     -107.7163       0.90005003    -106.81625    
     15400   232.81921     -481.73262      539.41179     -108.08482      0.9329216     -107.15189    
     15500   261.19279      265.33899      537.40134     -108.29757      1.0466163     -107.25095    
     15600   335.31417     -3680.6121      540.64252     -108.26804      1.3436255     -106.92442    
     15700   267.78855      388.62031      540.76785     -107.7749       1.073046      -106.70185    
     15800   301.82685      719.3561       540.3287      -107.87231      1.2094396     -106.66287    
     15900   285.914        619.7342       540.47629     -107.85049      1.1456758     -106.70481    
     16000   311.1591      -362.11982      539.61508     -108.13852      1.2468346     -106.89169    
     16100   228.16226      539.41198      538.76804     -108.0777       0.9142609     -107.16344    
     16200   241.051       -399.34249      538.87607     -108.10371      0.96590692    -107.1378     
     16300   283.89258      498.91538      540.65685     -107.81096      1.1375759     -106.67338    
     16400   365.23797     -2588.5432      542.10804     -107.99067      1.4635321     -106.52714    
     16500   294.66672      2459.9131      540.09638     -107.80917      1.1807485     -106.62842    
     16600   300.03533     -1303.0449      540.33269     -108.09111      1.2022609     -106.88885    
     16700   268.17711     -1141.7833      539.43356     -108.15338      1.074603      -107.07877    
     16800   275.57521      2002.6589      538.23487     -108.11679      1.1042476     -107.01255    
     16900   287.72144     -665.72933      542.40337     -107.68062      1.1529183     -106.52771    
     17000   308.82775      3561.4548      540.55516     -107.64967      1.2374927     -106.41218    
     17100   293.4526      -2720.9029      542.76351     -107.81279      1.1758835     -106.6369     
     17200   289.86014      2936.0366      537.55646     -108.09424      1.1614883     -106.93275    
     17300   286.99493     -4446.098       542.13537     -108.14384      1.1500072     -106.99383    
     17400   304.72628      3126.9457      537.71598     -108.08112      1.2210579     -106.86007    
     17500   262.91914     -3362.1417      543.37297     -107.83327      1.053534      -106.77974    
     17600   284.23633      6224.2387      537.15112     -107.84973      1.1389533     -106.71078    
     17700   264.71712     -5056.8697      544.92431     -107.73132      1.0607386     -106.67058    
     17800   349.55068      5214.8932      537.14904     -108.007        1.4006721     -106.60633    
     17900   354.71609     -8575.2983      546.08271     -108.0374       1.4213703     -106.61603    
     18000   298.8029       7100.7327      536.28598     -107.94784      1.1973225     -106.75052    
     18100   243.47784     -5605.9339      543.84415     -107.93206      0.97563141    -106.95643    
     18200   256.28623      7817.85        534.41536     -108.05223      1.0269555     -107.02527    
     18300   313.93461     -8103.9116      544.8112      -108.04729      1.2579562     -106.78933    
     18400   350.33601      5063.8826      538.46666     -107.80289      1.403819      -106.39907    
     18500   315.03577     -7205.6744      546.78017     -107.70397      1.2623687     -106.44161    
     18600   307.59554      8792.3953      535.10933     -107.94516      1.2325552     -106.71261    
     18700   277.88816     -8314.7108      545.26011     -108.0603       1.1135158     -106.94679    
     18800   323.85833      8138.0925      534.07581     -108.20864      1.2977212     -106.91092    
     18900   227.38187     -6885.7694      545.79017     -107.73651      0.91113383    -106.82537    
     19000   284.44283      9219.0501      535.31596     -107.77417      1.1397808     -106.63439    
     19100   303.24485     -8252.1547      547.56043     -107.6932       1.2151217     -106.47808    
     19200   433.58296      7783.8155      536.1978      -107.99785      1.7373949     -106.26045    
     19300   350.36029     -11944.048      549.60102     -107.79523      1.4039163     -106.39131    
     19400   281.64021      13776.585      531.93146     -107.9324       1.1285505     -106.80385    
     19500   228.39837     -11615.032      547.84237     -107.87502      0.91520702    -106.95982    
     19600   341.4337       12860.888      531.08567     -108.18866      1.3681469     -106.82052    
     19700   310.81858     -14652.677      551.40326     -107.72115      1.2454701     -106.47568    
     19800   393.22438      14002.822      533.62794     -107.73564      1.5756755     -106.15996    
     19900   281.37198     -12458.158      551.48286     -107.47894      1.1274757     -106.35147    
     20000   359.12535      14704.989      531.22116     -108.01299      1.4390384     -106.57395    
     20100   295.08169     -15494.69       550.2086      -107.9977       1.1824114     -106.81529    
     20200   285.78408      17264.374      529.08074     -107.99573      1.1451552     -106.85057    
     20300   252.20133     -13939.637      550.56588     -107.74412      1.010587      -106.73353    
     20400   347.13033      14860.848      532.75453     -107.6399       1.3909736     -106.24892    
     20500   345.25094     -16344.172      552.67857     -107.69898      1.3834428     -106.31554    
     20600   327.99933      16128.884      530.29225     -107.96889      1.3143145     -106.65457    
     20700   269.17487     -14128.303      549.55189     -107.94532      1.0786011     -106.86672    
     20800   318.72826      14373.418      530.82344     -108.08581      1.2771647     -106.80865    
     20900   304.43903     -14056.367      549.12769     -107.94029      1.2199068     -106.72038    
     21000   325.30763      13478.033      532.79021     -107.83113      1.3035287     -106.5276     
     21100   370.7963      -11908.665      552.06327     -107.46184      1.4858047     -105.97604    
     21200   348.91029      13426.114      535.31507     -107.4107       1.398106      -106.01259    
     21300   351.17735     -12666.589      549.22269     -107.86157      1.4071903     -106.45438    
     21400   311.4439       11873.034      533.14944     -107.92634      1.2479758     -106.67837    
     21500   276.28009     -10395.164      546.61154     -107.99447      1.1070721     -106.8874     
     21600   248.43501      12739.153      532.44699     -107.92883      0.99549509    -106.93333    
     21700   276.25648     -8693.0123      546.23024     -107.82416      1.1069775     -106.71719    
     21800   371.70168      7270.5798      537.3088      -107.79471      1.4894326     -106.30528    
     21900   358.57001     -8268.8308      546.68318     -107.83782      1.4368132     -106.401      
     22000   311.47657      5830.9942      536.90897     -107.96278      1.2481067     -106.71467    
     22100   273.09795     -3425.9358      542.81225     -107.93721      1.0943211     -106.84289    
     22200   324.91098      2892.4792      537.33921     -108.10443      1.3019393     -106.80249    
     22300   293.08253     -5228.0942      543.50897     -107.89754      1.1744006     -106.72314    
     22400   283.93224      5545.3447      538.45604     -107.67094      1.1377348     -106.5332     
     22500   336.38256     -3135.2854      545.59976     -107.50047      1.3479066     -106.15256    
     22600   439.97026      2571.1266      540.06838     -107.91602      1.7629892     -106.15303    
     22700   332.67776     -5020.2874      542.92255     -108.02062      1.3330612     -106.68756    
     22800   276.75382      3792.6494      537.61192     -107.93046      1.1089704     -106.82148    
     22900   236.01207     -1880.037       541.77335     -107.79953      0.9457156     -106.85381    
     23000   338.55628      1501.7182      538.4682      -108.08998      1.3566169     -106.73336    
     23100   353.47711     -3785.4393      543.67828     -107.83521      1.4164056     -106.41881    
     23200   376.74988      3168.6901      540.49315     -107.73392      1.5096611     -106.22426    
     23300   259.14325     -1553.4268      542.78292     -107.70785      1.0384037     -106.66945    
     23400   283.1349       4553.3931      536.5696      -108.07081      1.1345398     -106.93627    
     23500   300.39584     -5801.9803      542.76858     -108.10101      1.2037055     -106.89731    
     23600   349.31731      2412.1317      538.00743     -108.06838      1.399737      -106.66864    
     23700   315.78968     -4394.2005      544.94743     -107.66291      1.2653896     -106.39752    
     23800   350.54932      4616.6975      539.90127     -107.64319      1.4046737     -106.23852    
     23900   301.75374     -2145.188       543.78287     -107.7134       1.2091467     -106.50426    
     24000   301.12721      6236.7955      535.52991     -108.11869      1.2066361     -106.91206    
     24100   254.28303     -4772.6019      542.3967      -108.01766      1.0189285     -106.99873    
     24200   320.94252      2915.1028      537.34215     -108.09529      1.2860374     -106.80925    
     24300   307.77211     -6365.4306      545.3023      -107.69697      1.2332627     -106.46371    
     24400   381.72536      3020.2606      539.28052     -107.89602      1.5295981     -106.36642    
     24500   344.28563     -4058.8196      544.18791     -107.89474      1.3795747     -106.51517    
     24600   283.66794      7694.8001      536.6951      -107.80788      1.1366757     -106.67121    
     24700   256.44921     -3698.0881      543.46133     -107.83311      1.0276085     -106.8055     
     24800   282.24814      5274.6053      535.86957     -108.01274      1.1309865     -106.88176    
     24900   310.85842     -9497.0734      543.77562     -108.261        1.2456297     -107.01537    
     25000   295.55446      4929.2323      534.89583     -108.21739      1.1843058     -107.03308    
     25100   279.55691     -7577.7711      545.33799     -107.89522      1.1202026     -106.77502    
     25200   313.37442      10661.458      535.20168     -107.72457      1.2557115     -106.46886    
     25300   303.88339     -8772.6524      547.66699     -107.72639      1.2176804     -106.50871    
     25400   275.22593      13167.415      532.64905     -107.87062      1.102848      -106.76778    
     25500   247.52882     -13747.269      547.52564     -108.09971      0.99186394    -107.10785    
     25600   304.15891      12647.545      529.80975     -108.27594      1.2187844     -107.05716    
     25700   293.029       -17359.848      550.36922     -108.06567      1.1741861     -106.89148    
     25800   311.15699      17311.049      530.42694     -107.87954      1.2468261     -106.63271    
     25900   277.14045     -13200.68       551.55703     -107.63166      1.1105196     -106.52114    
     26000   307.30559      18943.783      529.70617     -107.76403      1.2313933     -106.53263    
     26100   247.79921     -18182.389      550.90446     -107.99814      0.9929474     -107.00519    
     26200   272.56945      19370.24       526.27629     -108.19242      1.0922033     -107.10022    
     26300   267.36572     -19917.805      552.50211     -107.98301      1.0713517     -106.91166    
     26400   359.46504      17891.023      528.60114     -108.06056      1.4403996     -106.62016    
     26500   295.16737     -17006.769      552.91025     -107.7665       1.1827547     -106.58374    
     26600   291.07286      21004.438      528.19821     -107.73977      1.1663477     -106.57342    
     26700   214.6521      -16757.748      552.08606     -107.68398      0.8601248     -106.82385    
     26800   279.70124      17958.933      526.71925     -108.25827      1.1207809     -107.13749    
     26900   255.34221     -17745.217      550.254       -108.15535      1.0231727     -107.13218    
     27000   339.25437      15550.473      529.55362     -108.11617      1.3594142     -106.75676    
     27100   255.30386     -13907.87       550.6126      -107.69593      1.023019      -106.67292    
     27200   312.64167      16066.175      530.78277     -107.84902      1.2527753     -106.59625    
     27300   298.7242      -14328.495      549.77647     -107.82908      1.1970071     -106.63207    
     27400   281.03808      14492.531      531.11656     -107.93275      1.1261377     -106.80662    
     27500   259.97428     -13221.672      547.55614     -108.10465      1.0417337     -107.06291    
     27600   289.3009       11644.339      530.9934      -108.22812      1.1592474     -107.06887    
     27700   322.19516     -11193.492      547.75504     -107.92414      1.2910568     -106.63308    
     27800   345.74932      9281.0733      535.64262     -107.81699      1.3854398     -106.43155    
     27900   292.24        -8805.656       547.26369     -107.77832      1.1710245     -106.6073     
     28000   308.64222      7537.9399      534.44986     -108.07179      1.2367493     -106.83504    
     28100   262.85496     -7432.9985      543.99287     -108.11571      1.0532768     -107.06243    
     28200   259.8391       8234.5627      533.44392     -108.17956      1.041192      -107.13837    
     28300   263.9606      -6609.2021      544.26387     -107.95486      1.0577071     -106.89715    
     28400   352.57251      5217.5024      537.19208     -107.94812      1.4127808     -106.53534    
     28500   287.3309      -5394.0788      545.86552     -107.62822      1.1513534     -106.47687    
     28600   333.17887      5520.7426      536.66469     -107.98231      1.3350692     -106.64724    
     28700   254.4768      -5983.7372      543.49111     -108.03434      1.0197049     -107.01463    
     28800   251.9056       7209.8069      534.62488     -108.07773      1.009402      -107.06833    
     28900   271.68147     -7053.6161      544.34262     -108.00711      1.0886452     -106.91847    
     29000   301.56762      5573.2711      536.36966     -107.99752      1.2084009     -106.78912    
     29100   322.73283     -7054.3404      544.54988     -108.00382      1.2932112     -106.71061    
     29200   280.82199      8093.2361      536.36561     -107.77711      1.1252718     -106.65183    
     29300   311.03925     -5573.8327      544.74075     -107.85208      1.2463543     -106.60573    
     29400   351.75157      3366.2419      537.69113     -108.08037      1.4094912     -106.67088    
     29500   294.32637     -6120.5918      543.59931     -108.05833      1.1793847     -106.87895    
     29600   255.87964      5602.5199      535.94356     -108.02677      1.0253262     -107.00144    
     29700   262.12907     -4330.0855      542.92319     -107.94536      1.0503681     -106.89499    
     29800   311.1929       5723.0938      538.6253      -107.69763      1.24697       -106.45066    
     29900   373.88331     -6904.9666      545.77298     -107.88895      1.4981745     -106.39077    
     30000   304.91814      5448.9958      537.87825     -107.84545      1.2218266     -106.62362    
     30100   311.11267     -5535.3537      543.021       -108.11309      1.2466485     -106.86644    
     30200   255.62442      7345.7471      535.8566      -107.91542      1.0243035     -106.89112    
     30300   276.15913     -5672.1576      544.2898      -107.91508      1.1065874     -106.8085     
     30400   307.7336       7190.6159      536.5432      -107.8465       1.2331084     -106.61339    
     30500   329.90034     -10646.333      548.27719     -107.73819      1.3219319     -106.41626    
     30600   372.82448      10467.18       535.78713     -107.69034      1.4939317     -106.19641    
     30700   308.73767     -10720.86       550.0191      -107.60348      1.2371318     -106.36635    
     30800   291.4007       16066.274      530.39515     -107.96617      1.1676614     -106.79851    
     30900   254.5568      -15534.623      550.01131     -107.93752      1.0200255     -106.91749    
     31000   297.03577      17670.549      529.1193      -107.95919      1.1902415     -106.76895    
     31100   301.66142     -19019.488      554.30644     -107.6591       1.2087768     -106.45033    
     31200   401.25401      19089.576      530.91128     -107.66643      1.6078507     -106.05858    
     31300   373.74195     -21140.133      555.98195     -107.74973      1.4976081     -106.25213    
     31400   324.92889      22835.174      527.83266     -107.74852      1.302011      -106.44651    
     31500   279.76436     -19977.29       554.01184     -107.81961      1.1210338     -106.69858    
     31600   289.70267      21946.674      526.68369     -107.978        1.1608573     -106.81714    
     31700   251.32046     -18803.701      552.52208     -107.88715      1.0070573     -106.88009    
     31800   315.515        20393.313      528.23779     -107.84945      1.264289      -106.58517    
     31900   370.06178     -20730.122      555.30744     -107.76388      1.4828614     -106.28101    
     32000   405.232        13856.199      532.6393      -107.91095      1.6237908     -106.28716    
     32100   270.06649     -13565.437      550.06898     -107.82802      1.0821739     -106.74585    
     32200   230.9234       19361.851      529.33843     -107.80555      0.92532497    -106.88022    
     32300   251.46664     -11569.96       548.57934     -107.83501      1.007643      -106.82737    
     32400   348.58144      10776.279      533.16032     -107.97474      1.3967883     -106.57795    
     32500   350.63583     -13799.638      550.33662     -107.7508       1.4050204     -106.34578    
     32600   424.16787      11320.35       535.96706     -107.60847      1.699668      -105.90881    
     32700   338.74933     -12005.147      552.08389     -107.50143      1.3573904     -106.14404    
     32800   305.21088      16065.338      531.63743     -107.83539      1.2229997     -106.61239    
     32900   264.27644     -12187.895      548.90178     -107.8318       1.0589727     -106.77283    
     33000   301.75132      13410.546      531.89316     -108.00831      1.209137      -106.79918    
     33100   275.41636     -11192.027      547.98954     -107.89395      1.1036111     -106.79034    
     33200   351.52217      10470.84       534.35276     -107.94271      1.408572      -106.53414    
     33300   384.20385     -12725.681      549.43752     -107.81019      1.5395296     -106.27066    
     33400   384.83641      7519.3205      535.782       -107.98964      1.5420643     -106.44757    
     33500   253.91441     -7464.8048      545.31287     -107.9349       1.0174514     -106.91745    
     33600   212.00472      12940.191      533.30282     -107.78718      0.84951658    -106.93766    
     33700   284.93241     -6724.727       545.52824     -107.91091      1.1417425     -106.76917    
     33800   360.41732      7892.8798      536.10515     -107.89279      1.4442155     -106.44858    
     33900   412.36801     -13503.209      548.9383      -108.00377      1.6523852     -106.35139    
     34000   264.72629      6986.8187      535.76508     -107.87667      1.0607753     -106.8159     
     34100   261.64665     -5698.5821      542.20342     -108.15044      1.048435      -107.102      
     34200   264.90668      6885.7733      535.50932     -108.0196       1.0614982     -106.9581     
     34300   284.71893     -4131.922       544.38162     -107.78783      1.1408871     -106.64695    
     34400   261.7884       8955.7398      537.64977     -107.54993      1.049003      -106.50092    
     34500   327.46379     -5560.1975      544.662       -107.92858      1.3121685     -106.61641    
     34600   292.73615      3085.6953      536.97069     -108.12328      1.1730126     -106.95027    
     34700   265.88118     -6689.3427      541.46037     -108.34874      1.0654031     -107.28334    
     34800   240.62097      3741.3252      536.25068     -108.12159      0.96418373    -107.1574     
     34900   261.10313     -3324.315       542.48643     -107.93116      1.0462571     -106.8849     
     35000   295.21656      4580.2965      538.2043      -107.84793      1.1829518     -106.66498    
     35100   297.55523     -2083.7205      543.19679     -107.80705      1.192323      -106.61473    
     35200   298.11968      5324.898       537.78923     -107.90745      1.1945848     -106.71287    
     35300   258.49689     -4564.9036      541.90953     -108.14688      1.0358137     -107.11107    
     35400   280.34508      2844.7496      535.909       -108.2992       1.1233608     -107.17584    
     35500   295.84243     -7383.6323      543.70617     -108.10321      1.1854597     -106.91775    
     35600   314.58246      3787.147       537.76459     -107.94794      1.2605522     -106.68738    
     35700   279.78899     -4078.2133      544.21233     -107.80908      1.1211325     -106.68795    
     35800   282.04028      9049.558       535.89471     -107.83005      1.1301536     -106.6999     
     35900   260.43358     -6214.3432      545.20678     -107.83578      1.0435742     -106.7922     
     36000   267.24404      8486.1696      533.78107     -108.07184      1.0708641     -107.00097    
     36100   260.32026     -11482.849      545.90483     -108.15537      1.0431201     -107.11225    
     36200   395.51027      6749.9737      533.18559     -108.42101      1.5848352     -106.83617    
     36300   289.81259     -13399.554      550.55714     -107.69534      1.1612978     -106.53404    
     36400   268.75672      19277.749      530.94571     -107.56507      1.0769255     -106.48815    
     36500   237.66434     -12928.711      550.74484     -107.62325      0.95233634    -106.67092    
     36600   324.61905      16433.509      528.97945     -108.1441       1.3007695     -106.84333    
     36700   225.30387     -18336.327      550.6956      -108.1063       0.90280714    -107.20349    
     36800   229.20797      19635.655      525.48152     -108.28548      0.91845113    -107.36703    
     36900   225.85016     -19136.662      551.53889     -108.0466       0.90499614    -107.14161    
     37000   344.93598      16797.345      528.15743     -108.26913      1.3821807     -106.88695    
     37100   245.50863     -16662.851      552.78111     -107.67788      0.98376889    -106.69411    
     37200   313.6711       20741.349      528.91053     -107.70984      1.2569003     -106.45294    
     37300   241.08483     -15766.896      553.10753     -107.43712      0.96604245    -106.47107    
     37400   314.62787      16865.97       529.09202     -108.07373      1.2607342     -106.813      
     37500   275.77878     -16109.066      548.86528     -108.21729      1.1050634     -107.11222    
     37600   321.66484      12714.758      530.15709     -108.26106      1.2889318     -106.97213    
     37700   300.8096      -14851.504      549.74424     -107.96825      1.2053635     -106.76289    
     37800   296.59894      13016.299      533.37607     -107.78803      1.1884911     -106.59954    
     37900   229.76315     -9017.4212      548.67411     -107.54763      0.92067575    -106.62696    
     38000   314.20285      13607.641      532.56746     -107.92703      1.2590311     -106.668      
     38100   308.55618     -11992.291      548.00724     -107.9922       1.2364045     -106.7558     
     38200   301.82728      11145.596      533.50119     -107.97216      1.2094414     -106.76271    
     38300   324.70577     -12252.397      547.93357     -108.07093      1.301117      -106.76981    
     38400   335.99023      8567.4332      534.35801     -108.0381       1.3463345     -106.69176    
     38500   324.38724     -9376.5246      546.85385     -107.94406      1.2998406     -106.64422    
     38600   254.83925      9953.7003      535.61431     -107.66273      1.0211573     -106.64157    
     38700   268.3796      -6061.8907      545.41823     -107.83154      1.0754144     -106.75613    
     38800   304.7564       7062.4108      535.0015      -108.13369      1.2211785     -106.91251    
     38900   279.2877      -7399.5248      543.71717     -108.17174      1.1191238     -107.05261    
     39000   284.95078      5843.1445      535.45907     -108.11593      1.1418161     -106.97411    
     39100   327.97086     -7597.7601      545.51609     -107.89578      1.3142004     -106.58157    
     39200   362.69772      3903.4192      538.42066     -107.8752       1.4533532     -106.42185    
     39300   333.37697     -6775.2855      544.902       -107.93607      1.335863      -106.60021    
     39400   232.88811      8509.6111      535.70985     -107.83065      0.93319766    -106.89745    
     39500   247.2086      -4269.6287      542.68734     -108.02632      0.9905808     -107.03574    
     39600   319.77438      6866.854       536.45984     -107.96399      1.2813566     -106.68263    
     39700   382.57008     -9422.4953      548.17954     -107.76951      1.532983      -106.23652    
     39800   323.01115      7086.1995      537.75186     -107.70486      1.2943265     -106.41054    
     39900   252.23077     -4860.17        544.21459     -107.81541      1.010705      -106.80471    
     40000   306.31222      5790.3232      535.45311     -108.16569      1.2274128     -106.93828    
     40100   307.87809     -7661.5757      544.211       -108.12438      1.2336873     -106.89069    
     40200   316.20985      8438.7747      537.03015     -107.72775      1.2670733     -106.46068    
     40300   317.94767     -6528.7357      547.37065     -107.56682      1.2740368     -106.29279    
     40400   300.25514      8325.19        536.8909      -107.66918      1.2031417     -106.46604    
     40500   350.3355      -9739.8799      546.19245     -108.066        1.4038169     -106.66219    
     40600   301.88587      6613.3234      536.03627     -107.95489      1.2096762     -106.74521    
     40700   325.5552      -7655.7968      544.70943     -108.10762      1.3045207     -106.8031     
     40800   283.74226      6114.1065      536.44755     -107.9201       1.1369735     -106.78313    
     40900   321.75682     -4105.6389      544.27996     -107.87308      1.2893003     -106.58378    
     41000   315.88789      5477.8804      538.86332     -107.64738      1.2657832     -106.38159    
     41100   315.72637     -4746.7621      544.44788     -107.80148      1.2651359     -106.53634    
     41200   279.27663      4391.441       537.18001     -108.00941      1.1190795     -106.89033    
     41300   288.74422     -5058.0682      542.10258     -108.14374      1.1570167     -106.98672    
     41400   310.17082      3479.9511      537.49249     -108.11823      1.2428745     -106.87535    
     41500   288.38514     -3453.5518      543.07133     -107.90005      1.1555778     -106.74447    
     41600   298.54151      3718.1237      538.04305     -107.9051       1.1962751     -106.70883    
     41700   270.41106     -3790.1091      543.27422     -107.813        1.0835546     -106.72944    
     41800   327.39788      3237.8427      537.52535     -108.07158      1.3119044     -106.75967    
     41900   288.84475     -5381.591       543.45046     -107.99439      1.1574196     -106.83697    
     42000   298.66488      5418.4795      536.00554     -108.1152       1.1967694     -106.91843    
     42100   264.09705     -5305.5578      543.80883     -107.93455      1.0582539     -106.87629    
     42200   364.11953      4197.9614      537.43598     -108.04777      1.4590504     -106.58872    
     42300   290.09822     -5648.6798      546.28566     -107.54284      1.1624423     -106.38039    
     42400   310.44004      8088.6233      536.45696     -107.75822      1.2439533     -106.51427    
     42500   205.18115     -5663.066       544.0586      -107.84974      0.82217409    -107.02757    
     42600   316.02378      6018.6626      534.54177     -108.27223      1.2663277     -107.0059     
     42700   308.92427     -8911.5914      545.36705     -108.05054      1.2378795     -106.81266    
     42800   357.50342      6599.4791      536.45168     -107.95659      1.4325393     -106.52405    
     42900   259.72493     -5612.7426      546.49618     -107.54868      1.0407345     -106.50794    
     43000   315.19289      7794.5543      535.91142     -107.91564      1.2629983     -106.65264    
     43100   214.95639     -8303.7331      544.15723     -108.05583      0.86134412    -107.19449    
     43200   270.84453      8868.0797      532.18241     -108.28447      1.0852915     -107.19918    
     43300   267.21409     -9839.0297      546.08613     -107.98164      1.0707441     -106.9109     
     43400   322.18046      11104.088      534.0948      -107.90617      1.2909979     -106.61517    
     43500   334.47435     -11974.642      548.92432     -107.87424      1.3402603     -106.53398    
     43600   342.26205      10737.869      533.55961     -107.98012      1.3714661     -106.60865    
     43700   246.39959     -11387.669      546.81187     -108.00589      0.98733907    -107.01855    
     43800   229.84392      13779.429      530.28755     -108.04979      0.9209994     -107.12879    
     43900   228.99215     -9912.6329      547.32004     -107.8637       0.9175863     -106.94611    
     44000   359.57943      9458.2377      533.35838     -108.11542      1.440858      -106.67456    
     44100   323.34706     -13528.308      548.63575     -107.94177      1.2956725     -106.6461     
     44200   337.96392      10291.558      533.56065     -108.0019       1.3542432     -106.64766    
     44300   239.56427     -9663.7615      547.39477     -107.72666      0.95994948    -106.76671    
     44400   244.97901      12558.749      531.78457     -107.9981       0.98164668    -107.01645    
     44500   219.5834      -9659.3439      545.16123     -108.05091      0.87988484    -107.17102    
     44600   306.72805      9316.9564      532.98549     -108.15548      1.2290791     -106.9264     
     44700   344.91252     -12278.996      548.28414     -107.94911      1.3820867     -106.56702    
     44800   385.90791      7647.3809      535.11372     -108.05318      1.5463579     -106.50682    
     44900   280.45062     -9465.3744      546.43871     -107.82107      1.1237837     -106.69729    
     45000   262.56148      9697.938       533.28178     -108.02698      1.0521008     -106.97488    
     45100   204.43941     -6255.4737      543.24137     -108.06955      0.81920191    -107.25035    
     45200   231.13346      6593.8733      533.32597     -108.31369      0.9261667     -107.38753    
     45300   264.32262     -6459.0029      542.96626     -108.13144      1.0591578     -107.07228    
     45400   336.45397      3844.4562      537.24342     -108.05818      1.3481928     -106.70999    
     45500   337.50469     -6539.9298      544.96514     -107.89996      1.3524031     -106.54756    
     45600   288.45289      4846.4762      538.66823     -107.67067      1.1558493     -106.51482    
     45700   301.24694     -5113.6812      543.37131     -107.93086      1.2071159     -106.72375    
     45800   220.9984       7249.2131      535.48663     -107.94493      0.88555485    -107.05937    
     45900   262.14608     -2944.5834      541.0378      -108.10954      1.0504362     -107.05911    
     46000   307.49286      3554.9594      537.81604     -107.98423      1.2321437     -106.75208    
     46100   366.63644     -7392.3502      544.59229     -107.99913      1.4691359     -106.53       
     46200   302.49319      5365.8679      537.60028     -107.81171      1.2121097     -106.5996     
     46300   259.7173      -4548.4468      543.98101     -107.8159       1.040704      -106.77519    
     46400   257.79576      6816.0792      535.92995     -107.9282       1.0330042     -106.89519    
     46500   278.09192     -4635.8629      542.44273     -108.09703      1.1143323     -106.9827     
     46600   328.81843      4103.7844      536.20538     -108.17635      1.3175967     -106.85876    
     46700   333.39275     -5583.5256      545.09539     -107.85392      1.3359263     -106.518      
     46800   325.88344      3089.988       540.14838     -107.63841      1.305836      -106.33258    
     46900   320.23887     -3964.3163      542.91763     -107.86389      1.2832178     -106.58067    
     47000   275.44385      3987.8687      536.43114     -108.06338      1.1037213     -106.95966    
     47100   249.34694     -3399.316       542.00301     -107.95357      0.99914928    -106.95442    
     47200   283.90908      4927.0415      537.29388     -107.9099       1.137642      -106.77226    
     47300   326.50369     -4693.0048      543.72427     -107.86824      1.3083213     -106.55991    
     47400   374.69529      3777.2333      538.61875     -107.92893      1.5014282     -106.4275     
     47500   283.25414     -4868.3708      545.12787     -107.66706      1.1350176     -106.53204    
     47600   288.57649      3747.8845      537.23585     -108.00833      1.1563446     -106.85199    
     47700   284.76298     -6009.8561      542.47965     -108.1876       1.1410636     -107.04653    
     47800   309.70662      5210.4117      536.17395     -108.1564       1.2410144     -106.91539    
     47900   295.55432     -3528.4844      544.5322      -107.70851      1.1843052     -106.52421    
     48000   290.6081       6885.9953      538.24818     -107.59169      1.1644854     -106.42721    
     48100   337.79161     -6198.0074      544.29128     -107.90619      1.3535528     -106.55264    
     48200   326.39391      2348.8227      537.81338     -108.03135      1.3078814     -106.72347    
     48300   325.83848     -7626.879       543.62377     -108.15211      1.3056558     -106.84645    
     48400   271.93907      5003.7134      536.54899     -107.96587      1.0896774     -106.87619    
     48500   274.85853     -1678.5497      543.72084     -107.69348      1.1013759     -106.5921     
     48600   327.33797      6179.9551      539.03487     -107.59197      1.3116644     -106.28031    
     48700   333.71964     -5671.1621      545.26245     -107.83082      1.3372361     -106.49358    
     48800   291.12285      3524.3649      537.588       -107.95333      1.166548      -106.78678    
     48900   274.88345     -5118.2642      542.7045      -107.989        1.1014757     -106.88753    
     49000   335.50688      2665.3215      537.38892     -108.16933      1.3443977     -106.82493    
     49100   359.67188     -5071.9214      544.41833     -107.93073      1.4412284     -106.4895     
     49200   395.03486      1779.1953      542.61968     -107.59513      1.5829302     -106.0122     
     49300   307.94612      1011.1168      542.51778     -107.57332      1.23396       -106.33936    
     49400   290.8879       3165.4174      539.17643     -107.82767      1.1656066     -106.66207    
     49500   293.22549     -3462.3911      541.82107     -108.01202      1.1749734     -106.83704    
     49600   293.8247       1341.3873      538.50252     -108.05504      1.1773745     -106.87767    
     49700   295.92806     -1859.0248      541.75952     -107.87241      1.1858028     -106.68661    
     49800   386.47028      51.364531      542.12649     -107.75702      1.5486113     -106.20841    
     49900   356.32486     -1630.6642      543.66091     -107.72452      1.4278167     -106.2967     
     50000   268.62435      5574.8012      538.54683     -107.72989      1.0763951     -106.65349    
Loop time of 2.61603 on 2 procs for 50000 steps with 32 atoms

Performance: 1651.354 ns/day, 0.015 hours/ns, 19112.899 timesteps/s
97.6% CPU use with 2 MPI tasks x 1 OpenMP threads

MPI task timing breakdown:
Section |  min time  |  avg time  |  max time  |%varavg| %total
---------------------------------------------------------------
Pair    | 1.7971     | 1.8708     | 1.9446     |   5.4 | 71.51
Neigh   | 0          | 0          | 0          |   0.0 |  0.00
Comm    | 0.41065    | 0.48434    | 0.55802    |  10.6 | 18.51
Output  | 0.0022798  | 0.0043832  | 0.0064865  |   3.2 |  0.17
Modify  | 0.21255    | 0.21419    | 0.21582    |   0.4 |  8.19
Other   |            | 0.04229    |            |       |  1.62

Nlocal:             16 ave          16 max          16 min
Histogram: 2 0 0 0 0 0 0 0 0 0
Nghost:            914 ave         914 max         914 min
Histogram: 2 0 0 0 0 0 0 0 0 0
Neighs:           1120 ave        1314 max         926 min
Histogram: 1 0 0 0 0 0 0 0 0 1

Total # of neighbors = 2240
Ave neighs/atom = 70
Neighbor list builds = 0
Dangerous builds = 0
ERROR: Illegal variable command (src/src/variable.cpp:414)
Last command: variable T equal ${T} + ${T_step}
