
     Program BANDS v.7.3.1 starts on  6Oct2024 at 19:17:32 

     This program is part of the open-source Quantum ESPRESSO suite
     for quantum simulation of materials; please cite
         "P. Giannozzi et al., J. Phys.:Condens. Matter 21 395502 (2009);
         "P. Giannozzi et al., J. Phys.:Condens. Matter 29 465901 (2017);
         "P. Giannozzi et al., J. Chem. Phys. 152 154105 (2020);
          URL http://www.quantum-espresso.org", 
     in publications or presentations arising from this work. More details at
     http://www.quantum-espresso.org/quote

     Parallel version (MPI & OpenMP), running on       2 processor cores
     Number of MPI processes:                 2
     Threads/MPI process:                     1

     MPI processes distributed on     1 nodes
     R & G space division:  proc/nbgrp/npool/nimage =       2
     481254 MiB available memory on the printing compute node when the environment starts


     Reading xml data from directory:

     ./diamond.save/

     IMPORTANT: XC functional enforced from input :
     Exchange-correlation= PBE
                           (   1   4   3   4   0   0   0)
     Any further DFT definition will be discarded
     Please, verify this is what you really want


     Parallelization info
     --------------------
     sticks:   dense  smooth     PW     G-vecs:    dense   smooth      PW
     Min         156     156     63                 1847     1847     482
     Max         157     157     64                 1848     1848     483
     Sum         313     313    127                 3695     3695     965

     Using Slab Decomposition

     Reading collected, re-writing distributed wavefunctions
     high-symmetry point:  0.0000 0.0000 0.0000   x coordinate   0.0000
     high-symmetry point:  0.5000 0.0000 0.5000   x coordinate   0.7071
     high-symmetry point:  0.3750 0.3750 0.7500   x coordinate   1.1748
     high-symmetry point:  0.0000 0.0000 0.0000   x coordinate   2.0934
     high-symmetry point:  0.5000 0.5000 0.5000   x coordinate   2.9594
     high-symmetry point:  0.2500 0.2500 0.2500   x coordinate   3.3924

     Plottable bands (eV) written to file bands.dat.gnu
     Bands written to file bands.dat

 **************************************************************************

                    xk=(   0.00000,   0.00000,   0.00000  )

     point group O_h (m-3m) 
     there are 10 classes
     the character table:

       E     8C3   3C2   6C4   6C2'  i     8S6   3s_h  6S4   6s_d 
A_1g   1.00  1.00  1.00  1.00  1.00  1.00  1.00  1.00  1.00  1.00
A_2g   1.00  1.00  1.00 -1.00 -1.00  1.00  1.00  1.00 -1.00 -1.00
E_g    2.00 -1.00  2.00  0.00  0.00  2.00 -1.00  2.00  0.00  0.00
T_1g   3.00  0.00 -1.00  1.00 -1.00  3.00  0.00 -1.00  1.00 -1.00
T_2g   3.00  0.00 -1.00 -1.00  1.00  3.00  0.00 -1.00 -1.00  1.00
A_1u   1.00  1.00  1.00  1.00  1.00 -1.00 -1.00 -1.00 -1.00 -1.00
A_2u   1.00  1.00  1.00 -1.00 -1.00 -1.00 -1.00 -1.00  1.00  1.00
E_u    2.00 -1.00  2.00  0.00  0.00 -2.00  1.00 -2.00  0.00  0.00
T_1u   3.00  0.00 -1.00  1.00 -1.00 -3.00  0.00  1.00 -1.00  1.00
T_2u   3.00  0.00 -1.00 -1.00  1.00 -3.00  0.00  1.00  1.00 -1.00

     the symmetry operations in each class and the name of the first element:

     E        1
                                                                 
     8C3     17   19   20   18   24   21   22   23
                                                                 
     3C2      2    4    3
                                                                 
     6C4      7    8   15   16   12   11
                                                                 
     6C2'     5    6   14   13   10    9
                                                                 
     i       25
                                                                 
     8S6     41   43   44   42   48   45   46   47
                                                                 
     3s_h    26   28   27
                                                                 
     6S4     31   32   39   40   36   35
                                                                 
     6s_d    29   30   38   37   34   33
                                                                 

     Band symmetry, O_h (m-3m)  point group:

     e(  1 -  1) =     -8.12686  eV     1   --> A_1g G_1   G_1+
     e(  2 -  4) =     13.29293  eV     3   --> T_2g G_25' G_5+
     e(  5 -  7) =     18.88791  eV     3   --> T_1u G_15  G_4-
     e(  8 -  8) =     26.61023  eV     1   --> A_2u G_2'  G_2-

 **************************************************************************

 **************************************************************************

                    xk=(   0.05000,   0.00000,   0.05000  )

     point group C_2v (mm2) 
     there are  4 classes
     the character table:

       E     C2    s_v   s_v' 
A_1    1.00  1.00  1.00  1.00
A_2    1.00  1.00 -1.00 -1.00
B_1    1.00 -1.00  1.00 -1.00
B_2    1.00 -1.00 -1.00  1.00

     the symmetry operations in each class and the name of the first element:

     E        1
                                                                 
     C2       2
                                                                 
     s_v      3
                                                                 
     s_v'     4
                                                                 

     Band symmetry, C_2v (mm2)  point group:

     e(  1 -  1) =     -8.08076  eV     1   --> A_1  D_1  S_1  
     e(  2 -  2) =     13.02046  eV     1   --> B_2  D_4  S_4  
     e(  3 -  3) =     13.09923  eV     1   --> A_1  D_1  S_1  
     e(  4 -  4) =     13.26465  eV     1   --> A_2  D_2  S_2  
     e(  5 -  5) =     18.93508  eV     1   --> B_1  D_3  S_3  
     e(  6 -  6) =     19.03887  eV     1   --> A_1  D_1  S_1  
     e(  7 -  7) =     19.11339  eV     1   --> B_2  D_4  S_4  
     e(  8 -  8) =     26.64847  eV     1   --> B_2  D_4  S_4  

 **************************************************************************

 **************************************************************************

                    xk=(   0.10000,   0.00000,   0.10000  )

     Band symmetry, C_2v (mm2)  point group:

     e(  1 -  1) =     -7.94263  eV     1   --> A_1  D_1  S_1  
     e(  2 -  2) =     12.32162  eV     1   --> B_2  D_4  S_4  
     e(  3 -  3) =     12.57557  eV     1   --> A_1  D_1  S_1  
     e(  4 -  4) =     13.17851  eV     1   --> A_2  D_2  S_2  
     e(  5 -  5) =     19.07561  eV     1   --> B_1  D_3  S_3  
     e(  6 -  6) =     19.43912  eV     1   --> A_1  D_1  S_1  
     e(  7 -  7) =     19.66513  eV     1   --> B_2  D_4  S_4  
     e(  8 -  8) =     26.75330  eV     1   --> B_2  D_4  S_4  

 **************************************************************************

 **************************************************************************

                    xk=(   0.15000,   0.00000,   0.15000  )

     Band symmetry, C_2v (mm2)  point group:

     e(  1 -  1) =     -7.71285  eV     1   --> A_1  D_1  S_1  
     e(  2 -  2) =     11.39425  eV     1   --> B_2  D_4  S_4  
     e(  3 -  3) =     11.83493  eV     1   --> A_1  D_1  S_1  
     e(  4 -  4) =     13.03082  eV     1   --> A_2  D_2  S_2  
     e(  5 -  5) =     19.30788  eV     1   --> B_1  D_3  S_3  
     e(  6 -  6) =     19.99673  eV     1   --> A_1  D_1  S_1  
     e(  7 -  7) =     20.32880  eV     1   --> B_2  D_4  S_4  
     e(  8 -  8) =     26.89313  eV     1   --> B_2  D_4  S_4  

 **************************************************************************

 **************************************************************************

                    xk=(   0.20000,   0.00000,   0.20000  )

     Band symmetry, C_2v (mm2)  point group:

     e(  1 -  1) =     -7.39210  eV     1   --> A_1  D_1  S_1  
     e(  2 -  2) =     10.37107  eV     1   --> B_2  D_4  S_4  
     e(  3 -  3) =     10.97270  eV     1   --> A_1  D_1  S_1  
     e(  4 -  4) =     12.81740  eV     1   --> A_2  D_2  S_2  
     e(  5 -  5) =     19.63096  eV     1   --> B_1  D_3  S_3  
     e(  6 -  6) =     20.64566  eV     1   --> A_1  D_1  S_1  
     e(  7 -  7) =     20.95667  eV     1   --> B_2  D_4  S_4  
     e(  8 -  8) =     27.01584  eV     1   --> B_2  D_4  S_4  

 **************************************************************************

 **************************************************************************

                    xk=(   0.25000,   0.00000,   0.25000  )

     Band symmetry, C_2v (mm2)  point group:

     e(  1 -  1) =     -6.98142  eV     1   --> A_1  D_1  S_1  
     e(  2 -  2) =      9.32294  eV     1   --> B_2  D_4  S_4  
     e(  3 -  3) =     10.05337  eV     1   --> A_1  D_1  S_1  
     e(  4 -  4) =     12.53601  eV     1   --> A_2  D_2  S_2  
     e(  5 -  5) =     20.04308  eV     1   --> B_1  D_3  S_3  
     e(  6 -  6) =     21.35495  eV     1   --> A_1  D_1  S_1  
     e(  7 -  7) =     21.46521  eV     1   --> B_2  D_4  S_4  
     e(  8 -  8) =     27.06773  eV     1   --> B_2  D_4  S_4  

 **************************************************************************

 **************************************************************************

                    xk=(   0.30000,   0.00000,   0.30000  )

     Band symmetry, C_2v (mm2)  point group:

     e(  1 -  1) =     -6.48239  eV     1   --> A_1  D_1  S_1  
     e(  2 -  2) =      8.28755  eV     1   --> B_2  D_4  S_4  
     e(  3 -  3) =      9.11823  eV     1   --> A_1  D_1  S_1  
     e(  4 -  4) =     12.18634  eV     1   --> A_2  D_2  S_2  
     e(  5 -  5) =     20.54091  eV     1   --> B_1  D_3  S_3  
     e(  6 -  6) =     21.80607  eV     1   --> B_2  D_4  S_4  
     e(  7 -  7) =     22.11405  eV     1   --> A_1  D_1  S_1  
     e(  8 -  8) =     27.03511  eV     1   --> B_2  D_4  S_4  

 **************************************************************************

 **************************************************************************

                    xk=(   0.35000,   0.00000,   0.35000  )

     Band symmetry, C_2v (mm2)  point group:

     e(  1 -  1) =     -5.89726  eV     1   --> A_1  D_1  S_1  
     e(  2 -  2) =      7.28780  eV     1   --> B_2  D_4  S_4  
     e(  3 -  3) =      8.19676  eV     1   --> A_1  D_1  S_1  
     e(  4 -  4) =     11.77428  eV     1   --> A_2  D_2  S_2  
     e(  5 -  5) =     21.12022  eV     1   --> B_1  D_3  S_3  
     e(  6 -  6) =     21.94899  eV     1   --> B_2  D_4  S_4  
     e(  7 -  7) =     22.92189  eV     1   --> A_1  D_1  S_1  
     e(  8 -  8) =     26.96632  eV     1   --> B_2  D_4  S_4  

 **************************************************************************

 **************************************************************************

                    xk=(   0.40000,   0.00000,   0.40000  )

     Band symmetry, C_2v (mm2)  point group:

     e(  1 -  1) =     -5.22944  eV     1   --> A_1  D_1  S_1  
     e(  2 -  2) =      6.33754  eV     1   --> B_2  D_4  S_4  
     e(  3 -  3) =      7.31014  eV     1   --> A_1  D_1  S_1  
     e(  4 -  4) =     11.31025  eV     1   --> A_2  D_2  S_2  
     e(  5 -  5) =     21.77617  eV     1   --> B_1  D_3  S_3  
     e(  6 -  6) =     21.88385  eV     1   --> B_2  D_4  S_4  
     e(  7 -  7) =     23.78053  eV     1   --> A_1  D_1  S_1  
     e(  8 -  8) =     26.94043  eV     1   --> B_2  D_4  S_4  

 **************************************************************************

 **************************************************************************

                    xk=(   0.45000,   0.00000,   0.45000  )

     Band symmetry, C_2v (mm2)  point group:

     e(  1 -  1) =     -4.48390  eV     1   --> A_1  D_1  S_1  
     e(  2 -  2) =      5.44625  eV     1   --> B_2  D_4  S_4  
     e(  3 -  3) =      6.47606  eV     1   --> A_1  D_1  S_1  
     e(  4 -  4) =     10.80879  eV     1   --> A_2  D_2  S_2  
     e(  5 -  5) =     21.63252  eV     1   --> B_2  D_4  S_4  
     e(  6 -  6) =     22.50230  eV     1   --> B_1  D_3  S_3  
     e(  7 -  7) =     24.68960  eV     1   --> A_1  D_1  S_1  
     e(  8 -  8) =     27.01189  eV     1   --> B_2  D_4  S_4  

 **************************************************************************

 **************************************************************************

                    xk=(   0.50000,   0.00000,   0.50000  )

     Band symmetry, C_2v (mm2)  point group:

     e(  1 -  1) =     -3.66877  eV     1   --> A_1  D_1  S_1  
     e(  2 -  2) =      4.62030  eV     1   --> B_2  D_4  S_4  
     e(  3 -  3) =      5.71006  eV     1   --> A_1  D_1  S_1  
     e(  4 -  4) =     10.28636  eV     1   --> A_2  D_2  S_2  
     e(  5 -  5) =     21.24640  eV     1   --> B_2  D_4  S_4  
     e(  6 -  6) =     23.28896  eV     1   --> B_1  D_3  S_3  
     e(  7 -  7) =     25.63868  eV     1   --> A_1  D_1  S_1  
     e(  8 -  8) =     27.18771  eV     1   --> B_2  D_4  S_4  

 **************************************************************************

 **************************************************************************

                    xk=(   0.48750,   0.03750,   0.52500  )

     point group C_1 (1)    
     there are  1 classes
     the character table:

       E    
A      1.00

     the symmetry operations in each class and the name of the first element:

     E        1
                                                                 

     Band symmetry, C_1 (1)     point group:

     e(  1 -  1) =     -3.54523  eV     1   --> A              
     e(  2 -  2) =      4.30233  eV     1   --> A              
     e(  3 -  3) =      5.85065  eV     1   --> A              
     e(  4 -  4) =     10.19383  eV     1   --> A              
     e(  5 -  5) =     21.23772  eV     1   --> A              
     e(  6 -  6) =     23.30823  eV     1   --> A              
     e(  7 -  7) =     25.68557  eV     1   --> A              
     e(  8 -  8) =     27.26898  eV     1   --> A              

 **************************************************************************

 **************************************************************************

                    xk=(   0.47500,   0.07500,   0.55000  )

     Band symmetry, C_1 (1)     point group:

     e(  1 -  1) =     -3.38690  eV     1   --> A              
     e(  2 -  2) =      3.78066  eV     1   --> A              
     e(  3 -  3) =      6.21965  eV     1   --> A              
     e(  4 -  4) =     10.05024  eV     1   --> A              
     e(  5 -  5) =     21.31644  eV     1   --> A              
     e(  6 -  6) =     23.16664  eV     1   --> A              
     e(  7 -  7) =     25.62929  eV     1   --> A              
     e(  8 -  8) =     27.41603  eV     1   --> A              

 **************************************************************************

 **************************************************************************

                    xk=(   0.46250,   0.11250,   0.57500  )

     Band symmetry, C_1 (1)     point group:

     e(  1 -  1) =     -3.19538  eV     1   --> A              
     e(  2 -  2) =      3.22712  eV     1   --> A              
     e(  3 -  3) =      6.64250  eV     1   --> A              
     e(  4 -  4) =      9.86495  eV     1   --> A              
     e(  5 -  5) =     21.46747  eV     1   --> A              
     e(  6 -  6) =     22.89374  eV     1   --> A              
     e(  7 -  7) =     25.55895  eV     1   --> A              
     e(  8 -  8) =     27.55128  eV     1   --> A              

 **************************************************************************

 **************************************************************************

                    xk=(   0.45000,   0.15000,   0.60000  )

     Band symmetry, C_1 (1)     point group:

     e(  1 -  1) =     -2.97324  eV     1   --> A              
     e(  2 -  2) =      2.68608  eV     1   --> A              
     e(  3 -  3) =      7.06642  eV     1   --> A              
     e(  4 -  4) =      9.65194  eV     1   --> A              
     e(  5 -  5) =     21.63720  eV     1   --> A              
     e(  6 -  6) =     22.57954  eV     1   --> A              
     e(  7 -  7) =     25.51185  eV     1   --> A              
     e(  8 -  8) =     27.63982  eV     1   --> A              

 **************************************************************************

 **************************************************************************

                    xk=(   0.43750,   0.18750,   0.62500  )

     Band symmetry, C_1 (1)     point group:

     e(  1 -  1) =     -2.72462  eV     1   --> A              
     e(  2 -  2) =      2.17521  eV     1   --> A              
     e(  3 -  3) =      7.45643  eV     1   --> A              
     e(  4 -  4) =      9.43318  eV     1   --> A              
     e(  5 -  5) =     21.62734  eV     1   --> A              
     e(  6 -  6) =     22.46960  eV     1   --> A              
     e(  7 -  7) =     25.47715  eV     1   --> A              
     e(  8 -  8) =     27.68955  eV     1   --> A              

 **************************************************************************

 **************************************************************************

                    xk=(   0.42500,   0.22500,   0.65000  )

     Band symmetry, C_1 (1)     point group:

     e(  1 -  1) =     -2.45649  eV     1   --> A              
     e(  2 -  2) =      1.70757  eV     1   --> A              
     e(  3 -  3) =      7.76483  eV     1   --> A              
     e(  4 -  4) =      9.24781  eV     1   --> A              
     e(  5 -  5) =     21.33212  eV     1   --> A              
     e(  6 -  6) =     22.71101  eV     1   --> A              
     e(  7 -  7) =     25.42729  eV     1   --> A              
     e(  8 -  8) =     27.72907  eV     1   --> A              

 **************************************************************************

 **************************************************************************

                    xk=(   0.41250,   0.26250,   0.67500  )

     Band symmetry, C_1 (1)     point group:

     e(  1 -  1) =     -2.18109  eV     1   --> A              
     e(  2 -  2) =      1.29848  eV     1   --> A              
     e(  3 -  3) =      7.91740  eV     1   --> A              
     e(  4 -  4) =      9.15970  eV     1   --> A              
     e(  5 -  5) =     20.98520  eV     1   --> A              
     e(  6 -  6) =     23.09790  eV     1   --> A              
     e(  7 -  7) =     25.33643  eV     1   --> A              
     e(  8 -  8) =     27.78954  eV     1   --> A              

 **************************************************************************

 **************************************************************************

                    xk=(   0.40000,   0.30000,   0.70000  )

     Band symmetry, C_1 (1)     point group:

     e(  1 -  1) =     -1.92055  eV     1   --> A              
     e(  2 -  2) =      0.97152  eV     1   --> A              
     e(  3 -  3) =      7.86988  eV     1   --> A              
     e(  4 -  4) =      9.20161  eV     1   --> A              
     e(  5 -  5) =     20.70124  eV     1   --> A              
     e(  6 -  6) =     23.52702  eV     1   --> A              
     e(  7 -  7) =     25.19571  eV     1   --> A              
     e(  8 -  8) =     27.89368  eV     1   --> A              

 **************************************************************************

 **************************************************************************

                    xk=(   0.38750,   0.33750,   0.72500  )

     Band symmetry, C_1 (1)     point group:

     e(  1 -  1) =     -1.71232  eV     1   --> A              
     e(  2 -  2) =      0.76472  eV     1   --> A              
     e(  3 -  3) =      7.68485  eV     1   --> A              
     e(  4 -  4) =      9.29930  eV     1   --> A              
     e(  5 -  5) =     20.52687  eV     1   --> A              
     e(  6 -  6) =     23.92834  eV     1   --> A              
     e(  7 -  7) =     25.04008  eV     1   --> A              
     e(  8 -  8) =     28.04373  eV     1   --> A              

 **************************************************************************

 **************************************************************************

                    xk=(   0.37500,   0.37500,   0.75000  )

     point group C_s (m)    
     there are  2 classes
     the character table:

       E     s    
A'     1.00  1.00
A''    1.00 -1.00

     the symmetry operations in each class and the name of the first element:

     E        1
                                                                 
     s        2
                                                                 

     Band symmetry, C_s (m)     point group:

     e(  1 -  1) =     -1.60413  eV     1   --> A'             
     e(  2 -  2) =      0.72546  eV     1   --> A'             
     e(  3 -  3) =      7.44161  eV     1   --> A'             
     e(  4 -  4) =      9.36581  eV     1   --> A''            
     e(  5 -  5) =     20.48750  eV     1   --> A'             
     e(  6 -  6) =     24.13242  eV     1   --> A''            
     e(  7 -  7) =     25.02762  eV     1   --> A'             
     e(  8 -  8) =     28.22053  eV     1   --> A'             

 **************************************************************************

 **************************************************************************

                    xk=(   0.33750,   0.33750,   0.67500  )

     Band symmetry, C_s (m)     point group:

     e(  1 -  1) =     -2.27209  eV     1   --> A'             
     e(  2 -  2) =      1.20781  eV     1   --> A'             
     e(  3 -  3) =      8.23096  eV     1   --> A'             
     e(  4 -  4) =      9.33054  eV     1   --> A''            
     e(  5 -  5) =     20.42366  eV     1   --> A'             
     e(  6 -  6) =     24.02764  eV     1   --> A''            
     e(  7 -  7) =     24.57283  eV     1   --> A'             
     e(  8 -  8) =     27.63222  eV     1   --> A'             

 **************************************************************************

 **************************************************************************

                    xk=(   0.30000,   0.30000,   0.60000  )

     Band symmetry, C_s (m)     point group:

     e(  1 -  1) =     -3.35006  eV     1   --> A'             
     e(  2 -  2) =      2.34685  eV     1   --> A'             
     e(  3 -  3) =      9.04101  eV     1   --> A'             
     e(  4 -  4) =      9.43032  eV     1   --> A''            
     e(  5 -  5) =     20.39632  eV     1   --> A'             
     e(  6 -  6) =     23.82314  eV     1   --> A''            
     e(  7 -  7) =     24.08294  eV     1   --> A'             
     e(  8 -  8) =     27.11122  eV     1   --> A'             

 **************************************************************************

 **************************************************************************

                    xk=(   0.26250,   0.26250,   0.52500  )

     Band symmetry, C_s (m)     point group:

     e(  1 -  1) =     -4.41378  eV     1   --> A'             
     e(  2 -  2) =      3.71808  eV     1   --> A'             
     e(  3 -  3) =      9.66804  eV     1   --> A''            
     e(  4 -  4) =      9.84332  eV     1   --> A'             
     e(  5 -  5) =     20.34781  eV     1   --> A'             
     e(  6 -  6) =     23.51119  eV     1   --> A''            
     e(  7 -  7) =     23.55457  eV     1   --> A'             
     e(  8 -  8) =     26.81388  eV     1   --> A'             

 **************************************************************************

 **************************************************************************

                    xk=(   0.22500,   0.22500,   0.45000  )

     Band symmetry, C_s (m)     point group:

     e(  1 -  1) =     -5.37384  eV     1   --> A'             
     e(  2 -  2) =      5.22342  eV     1   --> A'             
     e(  3 -  3) =     10.04104  eV     1   --> A''            
     e(  4 -  4) =     10.61191  eV     1   --> A'             
     e(  5 -  5) =     20.22026  eV     1   --> A'             
     e(  6 -  6) =     22.97981  eV     1   --> A'             
     e(  7 -  7) =     23.06050  eV     1   --> A''            
     e(  8 -  8) =     26.78151  eV     1   --> A'             

 **************************************************************************

 **************************************************************************

                    xk=(   0.18750,   0.18750,   0.37500  )

     Band symmetry, C_s (m)     point group:

     e(  1 -  1) =     -6.20325  eV     1   --> A'             
     e(  2 -  2) =      6.81803  eV     1   --> A'             
     e(  3 -  3) =     10.54022  eV     1   --> A''            
     e(  4 -  4) =     11.32460  eV     1   --> A'             
     e(  5 -  5) =     19.99762  eV     1   --> A'             
     e(  6 -  6) =     22.34784  eV     1   --> A'             
     e(  7 -  7) =     22.44299  eV     1   --> A''            
     e(  8 -  8) =     26.92650  eV     1   --> A'             

 **************************************************************************

 **************************************************************************

                    xk=(   0.15000,   0.15000,   0.30000  )

     Band symmetry, C_s (m)     point group:

     e(  1 -  1) =     -6.89044  eV     1   --> A'             
     e(  2 -  2) =      8.45922  eV     1   --> A'             
     e(  3 -  3) =     11.14708  eV     1   --> A''            
     e(  4 -  4) =     11.96183  eV     1   --> A'             
     e(  5 -  5) =     19.70868  eV     1   --> A'             
     e(  6 -  6) =     21.64228  eV     1   --> A'             
     e(  7 -  7) =     21.65924  eV     1   --> A''            
     e(  8 -  8) =     27.05028  eV     1   --> A'             

 **************************************************************************

 **************************************************************************

                    xk=(   0.11250,   0.11250,   0.22500  )

     Band symmetry, C_s (m)     point group:

     e(  1 -  1) =     -7.42928  eV     1   --> A'             
     e(  2 -  2) =     10.08740  eV     1   --> A'             
     e(  3 -  3) =     11.82639  eV     1   --> A''            
     e(  4 -  4) =     12.50354  eV     1   --> A'             
     e(  5 -  5) =     19.40478  eV     1   --> A'             
     e(  6 -  6) =     20.76454  eV     1   --> A''            
     e(  7 -  7) =     20.85215  eV     1   --> A'             
     e(  8 -  8) =     27.00496  eV     1   --> A'             

 **************************************************************************

 **************************************************************************

                    xk=(   0.07500,   0.07500,   0.15000  )

     Band symmetry, C_s (m)     point group:

     e(  1 -  1) =     -7.81619  eV     1   --> A'             
     e(  2 -  2) =     11.60223  eV     1   --> A'             
     e(  3 -  3) =     12.51029  eV     1   --> A''            
     e(  4 -  4) =     12.92587  eV     1   --> A'             
     e(  5 -  5) =     19.13829  eV     1   --> A'             
     e(  6 -  6) =     19.87394  eV     1   --> A''            
     e(  7 -  7) =     20.00421  eV     1   --> A'             
     e(  8 -  8) =     26.83598  eV     1   --> A'             

 **************************************************************************

 **************************************************************************

                    xk=(   0.03750,   0.03750,   0.07500  )

     Band symmetry, C_s (m)     point group:

     e(  1 -  1) =     -8.04909  eV     1   --> A'             
     e(  2 -  2) =     12.79933  eV     1   --> A'             
     e(  3 -  3) =     13.06646  eV     1   --> A''            
     e(  4 -  4) =     13.19822  eV     1   --> A'             
     e(  5 -  5) =     18.95456  eV     1   --> A'             
     e(  6 -  6) =     19.16857  eV     1   --> A''            
     e(  7 -  7) =     19.23528  eV     1   --> A'             
     e(  8 -  8) =     26.67383  eV     1   --> A'             

 **************************************************************************

 **************************************************************************

                    xk=(   0.00000,   0.00000,   0.00000  )

     point group O_h (m-3m) 
     there are 10 classes
     the character table:

       E     8C3   3C2   6C4   6C2'  i     8S6   3s_h  6S4   6s_d 
A_1g   1.00  1.00  1.00  1.00  1.00  1.00  1.00  1.00  1.00  1.00
A_2g   1.00  1.00  1.00 -1.00 -1.00  1.00  1.00  1.00 -1.00 -1.00
E_g    2.00 -1.00  2.00  0.00  0.00  2.00 -1.00  2.00  0.00  0.00
T_1g   3.00  0.00 -1.00  1.00 -1.00  3.00  0.00 -1.00  1.00 -1.00
T_2g   3.00  0.00 -1.00 -1.00  1.00  3.00  0.00 -1.00 -1.00  1.00
A_1u   1.00  1.00  1.00  1.00  1.00 -1.00 -1.00 -1.00 -1.00 -1.00
A_2u   1.00  1.00  1.00 -1.00 -1.00 -1.00 -1.00 -1.00  1.00  1.00
E_u    2.00 -1.00  2.00  0.00  0.00 -2.00  1.00 -2.00  0.00  0.00
T_1u   3.00  0.00 -1.00  1.00 -1.00 -3.00  0.00  1.00 -1.00  1.00
T_2u   3.00  0.00 -1.00 -1.00  1.00 -3.00  0.00  1.00  1.00 -1.00

     the symmetry operations in each class and the name of the first element:

     E        1
                                                                 
     8C3     17   19   20   18   24   21   22   23
                                                                 
     3C2      2    4    3
                                                                 
     6C4      7    8   15   16   12   11
                                                                 
     6C2'     5    6   14   13   10    9
                                                                 
     i       25
                                                                 
     8S6     41   43   44   42   48   45   46   47
                                                                 
     3s_h    26   28   27
                                                                 
     6S4     31   32   39   40   36   35
                                                                 
     6s_d    29   30   38   37   34   33
                                                                 

     Band symmetry, O_h (m-3m)  point group:

     e(  1 -  1) =     -8.12686  eV     1   --> A_1g G_1   G_1+
     e(  2 -  4) =     13.29293  eV     3   --> T_2g G_25' G_5+
     e(  5 -  7) =     18.88791  eV     3   --> T_1u G_15  G_4-
     e(  8 -  8) =     26.61023  eV     1   --> A_2u G_2'  G_2-

 **************************************************************************

 **************************************************************************

                    xk=(   0.05000,   0.05000,   0.05000  )

     point group C_3v (3m)  
     there are  3 classes
     the character table:

       E     2C3   3s_v 
A_1    1.00  1.00  1.00
A_2    1.00  1.00 -1.00
E      2.00 -1.00  0.00

     the symmetry operations in each class and the name of the first element:

     E        1
                                                                 
     2C3      2    3
                                                                 
     3s_v     4    5    6
                                                                 

     Band symmetry, C_3v (3m)   point group:

     e(  1 -  1) =     -8.05773  eV     1   --> A_1  L_1       
     e(  2 -  2) =     12.81129  eV     1   --> A_1  L_1       
     e(  3 -  4) =     13.16979  eV     2   --> E    L_3       
     e(  5 -  6) =     19.04879  eV     2   --> E    L_3       
     e(  7 -  7) =     19.18618  eV     1   --> A_1  L_1       
     e(  8 -  8) =     26.66874  eV     1   --> A_1  L_1       

 **************************************************************************

 **************************************************************************

                    xk=(   0.10000,   0.10000,   0.10000  )

     Band symmetry, C_3v (3m)   point group:

     e(  1 -  1) =     -7.85067  eV     1   --> A_1  L_1       
     e(  2 -  2) =     11.62487  eV     1   --> A_1  L_1       
     e(  3 -  4) =     12.84814  eV     2   --> E    L_3       
     e(  5 -  6) =     19.47250  eV     2   --> E    L_3       
     e(  7 -  7) =     19.83043  eV     1   --> A_1  L_1       
     e(  8 -  8) =     26.84312  eV     1   --> A_1  L_1       

 **************************************************************************

 **************************************************************************

                    xk=(   0.15000,   0.15000,   0.15000  )

     Band symmetry, C_3v (3m)   point group:

     e(  1 -  1) =     -7.50660  eV     1   --> A_1  L_1       
     e(  2 -  2) =     10.09747  eV     1   --> A_1  L_1       
     e(  3 -  4) =     12.42226  eV     2   --> E    L_3       
     e(  5 -  6) =     20.03112  eV     2   --> E    L_3       
     e(  7 -  7) =     20.49365  eV     1   --> A_1  L_1       
     e(  8 -  8) =     27.12508  eV     1   --> A_1  L_1       

 **************************************************************************

 **************************************************************************

                    xk=(   0.20000,   0.20000,   0.20000  )

     Band symmetry, C_3v (3m)   point group:

     e(  1 -  1) =     -7.02721  eV     1   --> A_1  L_1       
     e(  2 -  2) =      8.43001  eV     1   --> A_1  L_1       
     e(  3 -  4) =     11.97293  eV     2   --> E    L_3       
     e(  5 -  6) =     20.59953  eV     2   --> E    L_3       
     e(  7 -  7) =     21.04120  eV     1   --> A_1  L_1       
     e(  8 -  8) =     27.49169  eV     1   --> A_1  L_1       

 **************************************************************************

 **************************************************************************

                    xk=(   0.25000,   0.25000,   0.25000  )

     Band symmetry, C_3v (3m)   point group:

     e(  1 -  1) =     -6.41539  eV     1   --> A_1  L_1       
     e(  2 -  2) =      6.72445  eV     1   --> A_1  L_1       
     e(  3 -  4) =     11.55060  eV     2   --> E    L_3       
     e(  5 -  6) =     21.08195  eV     2   --> E    L_3       
     e(  7 -  7) =     21.44965  eV     1   --> A_1  L_1       
     e(  8 -  8) =     27.90050  eV     1   --> A_1  L_1       

 **************************************************************************

 **************************************************************************

                    xk=(   0.30000,   0.30000,   0.30000  )

     Band symmetry, C_3v (3m)   point group:

     e(  1 -  1) =     -5.67630  eV     1   --> A_1  L_1       
     e(  2 -  2) =      5.04099  eV     1   --> A_1  L_1       
     e(  3 -  4) =     11.18290  eV     2   --> E    L_3       
     e(  5 -  6) =     21.42508  eV     2   --> E    L_3       
     e(  7 -  7) =     21.73903  eV     1   --> A_1  L_1       
     e(  8 -  8) =     28.29130  eV     1   --> A_1  L_1       

 **************************************************************************

 **************************************************************************

                    xk=(   0.35000,   0.35000,   0.35000  )

     Band symmetry, C_3v (3m)   point group:

     e(  1 -  1) =     -4.81974  eV     1   --> A_1  L_1       
     e(  2 -  2) =      3.42349  eV     1   --> A_1  L_1       
     e(  3 -  4) =     10.88662  eV     2   --> E    L_3       
     e(  5 -  6) =     21.62703  eV     2   --> E    L_3       
     e(  7 -  7) =     21.93759  eV     1   --> A_1  L_1       
     e(  8 -  8) =     28.60979  eV     1   --> A_1  L_1       

 **************************************************************************

 **************************************************************************

                    xk=(   0.40000,   0.40000,   0.40000  )

     Band symmetry, C_3v (3m)   point group:

     e(  1 -  1) =     -3.86977  eV     1   --> A_1  L_1       
     e(  2 -  2) =      1.91714  eV     1   --> A_1  L_1       
     e(  3 -  4) =     10.67087  eV     2   --> E    L_3       
     e(  5 -  6) =     21.72224  eV     2   --> E    L_3       
     e(  7 -  7) =     22.06660  eV     1   --> A_1  L_1       
     e(  8 -  8) =     28.82392  eV     1   --> A_1  L_1       

 **************************************************************************

 **************************************************************************

                    xk=(   0.45000,   0.45000,   0.45000  )

     Band symmetry, C_3v (3m)   point group:

     e(  1 -  1) =     -2.90997  eV     1   --> A_1  L_1       
     e(  2 -  2) =      0.61875  eV     1   --> A_1  L_1       
     e(  3 -  4) =     10.53982  eV     2   --> E    L_3       
     e(  5 -  6) =     21.75626  eV     2   --> E    L_3       
     e(  7 -  7) =     22.13935  eV     1   --> A_1  L_1       
     e(  8 -  8) =     28.93703  eV     1   --> A_1  L_1       

 **************************************************************************

 **************************************************************************

                    xk=(   0.50000,   0.50000,   0.50000  )

     zone border point and non-symmorphic group 
     symmetry decomposition not available

 **************************************************************************

 **************************************************************************

                    xk=(   0.47500,   0.47500,   0.47500  )

     point group C_3v (3m)  
     there are  3 classes
     the character table:

       E     2C3   3s_v 
A_1    1.00  1.00  1.00
A_2    1.00  1.00 -1.00
E      2.00 -1.00  0.00

     the symmetry operations in each class and the name of the first element:

     E        1
                                                                 
     2C3      2    3
                                                                 
     3s_v     4    5    6
                                                                 

     Band symmetry, C_3v (3m)   point group:

     e(  1 -  1) =     -2.52536  eV     1   --> A_1  L_1       
     e(  2 -  2) =      0.14896  eV     1   --> A_1  L_1       
     e(  3 -  4) =     10.50694  eV     2   --> E    L_3       
     e(  5 -  6) =     21.76190  eV     2   --> E    L_3       
     e(  7 -  7) =     22.15713  eV     1   --> A_1  L_1       
     e(  8 -  8) =     28.96253  eV     1   --> A_1  L_1       

 **************************************************************************

 **************************************************************************

                    xk=(   0.45000,   0.45000,   0.45000  )

     Band symmetry, C_3v (3m)   point group:

     e(  1 -  1) =     -2.90997  eV     1   --> A_1  L_1       
     e(  2 -  2) =      0.61875  eV     1   --> A_1  L_1       
     e(  3 -  4) =     10.53982  eV     2   --> E    L_3       
     e(  5 -  6) =     21.75626  eV     2   --> E    L_3       
     e(  7 -  7) =     22.13935  eV     1   --> A_1  L_1       
     e(  8 -  8) =     28.93703  eV     1   --> A_1  L_1       

 **************************************************************************

 **************************************************************************

                    xk=(   0.42500,   0.42500,   0.42500  )

     Band symmetry, C_3v (3m)   point group:

     e(  1 -  1) =     -3.37969  eV     1   --> A_1  L_1       
     e(  2 -  2) =      1.22997  eV     1   --> A_1  L_1       
     e(  3 -  4) =     10.59448  eV     2   --> E    L_3       
     e(  5 -  6) =     21.74430  eV     2   --> E    L_3       
     e(  7 -  7) =     22.10931  eV     1   --> A_1  L_1       
     e(  8 -  8) =     28.89087  eV     1   --> A_1  L_1       

 **************************************************************************

 **************************************************************************

                    xk=(   0.40000,   0.40000,   0.40000  )

     Band symmetry, C_3v (3m)   point group:

     e(  1 -  1) =     -3.86977  eV     1   --> A_1  L_1       
     e(  2 -  2) =      1.91714  eV     1   --> A_1  L_1       
     e(  3 -  4) =     10.67087  eV     2   --> E    L_3       
     e(  5 -  6) =     21.72224  eV     2   --> E    L_3       
     e(  7 -  7) =     22.06660  eV     1   --> A_1  L_1       
     e(  8 -  8) =     28.82392  eV     1   --> A_1  L_1       

 **************************************************************************

 **************************************************************************

                    xk=(   0.37500,   0.37500,   0.37500  )

     Band symmetry, C_3v (3m)   point group:

     e(  1 -  1) =     -4.35375  eV     1   --> A_1  L_1       
     e(  2 -  2) =      2.65275  eV     1   --> A_1  L_1       
     e(  3 -  4) =     10.76835  eV     2   --> E    L_3       
     e(  5 -  6) =     21.68506  eV     2   --> E    L_3       
     e(  7 -  7) =     22.00976  eV     1   --> A_1  L_1       
     e(  8 -  8) =     28.73046  eV     1   --> A_1  L_1       

 **************************************************************************

 **************************************************************************

                    xk=(   0.35000,   0.35000,   0.35000  )

     Band symmetry, C_3v (3m)   point group:

     e(  1 -  1) =     -4.81974  eV     1   --> A_1  L_1       
     e(  2 -  2) =      3.42349  eV     1   --> A_1  L_1       
     e(  3 -  4) =     10.88662  eV     2   --> E    L_3       
     e(  5 -  6) =     21.62703  eV     2   --> E    L_3       
     e(  7 -  7) =     21.93759  eV     1   --> A_1  L_1       
     e(  8 -  8) =     28.60979  eV     1   --> A_1  L_1       

 **************************************************************************

 **************************************************************************

                    xk=(   0.32500,   0.32500,   0.32500  )

     Band symmetry, C_3v (3m)   point group:

     e(  1 -  1) =     -5.26176  eV     1   --> A_1  L_1       
     e(  2 -  2) =      4.22144  eV     1   --> A_1  L_1       
     e(  3 -  4) =     11.02498  eV     2   --> E    L_3       
     e(  5 -  6) =     21.54197  eV     2   --> E    L_3       
     e(  7 -  7) =     21.84802  eV     1   --> A_1  L_1       
     e(  8 -  8) =     28.46234  eV     1   --> A_1  L_1       

 **************************************************************************

 **************************************************************************

                    xk=(   0.30000,   0.30000,   0.30000  )

     Band symmetry, C_3v (3m)   point group:

     e(  1 -  1) =     -5.67630  eV     1   --> A_1  L_1       
     e(  2 -  2) =      5.04099  eV     1   --> A_1  L_1       
     e(  3 -  4) =     11.18290  eV     2   --> E    L_3       
     e(  5 -  6) =     21.42508  eV     2   --> E    L_3       
     e(  7 -  7) =     21.73903  eV     1   --> A_1  L_1       
     e(  8 -  8) =     28.29130  eV     1   --> A_1  L_1       

 **************************************************************************

 **************************************************************************

                    xk=(   0.27500,   0.27500,   0.27500  )

     Band symmetry, C_3v (3m)   point group:

     e(  1 -  1) =     -6.06131  eV     1   --> A_1  L_1       
     e(  2 -  2) =      5.87700  eV     1   --> A_1  L_1       
     e(  3 -  4) =     11.35842  eV     2   --> E    L_3       
     e(  5 -  6) =     21.27211  eV     2   --> E    L_3       
     e(  7 -  7) =     21.60727  eV     1   --> A_1  L_1       
     e(  8 -  8) =     28.10170  eV     1   --> A_1  L_1       

 **************************************************************************

 **************************************************************************

                    xk=(   0.25000,   0.25000,   0.25000  )

     Band symmetry, C_3v (3m)   point group:

     e(  1 -  1) =     -6.41539  eV     1   --> A_1  L_1       
     e(  2 -  2) =      6.72445  eV     1   --> A_1  L_1       
     e(  3 -  4) =     11.55060  eV     2   --> E    L_3       
     e(  5 -  6) =     21.08195  eV     2   --> E    L_3       
     e(  7 -  7) =     21.44965  eV     1   --> A_1  L_1       
     e(  8 -  8) =     27.90050  eV     1   --> A_1  L_1       

 **************************************************************************

     BANDS        :      0.37s CPU      0.41s WALL


   This run was terminated on:  19:17:32   6Oct2024            

=------------------------------------------------------------------------------=
   JOB DONE.
=------------------------------------------------------------------------------=
