
     Program BANDS v.7.3.1 starts on  6Oct2024 at 14:31:39 

     This program is part of the open-source Quantum ESPRESSO suite
     for quantum simulation of materials; please cite
         "P. Giannozzi et al., J. Phys.:Condens. Matter 21 395502 (2009);
         "P. Giannozzi et al., J. Phys.:Condens. Matter 29 465901 (2017);
         "P. Giannozzi et al., J. Chem. Phys. 152 154105 (2020);
          URL http://www.quantum-espresso.org", 
     in publications or presentations arising from this work. More details at
     http://www.quantum-espresso.org/quote

     Parallel version (MPI & OpenMP), running on       2 processor cores
     Number of MPI processes:                 2
     Threads/MPI process:                     1

     MPI processes distributed on     1 nodes
     R & G space division:  proc/nbgrp/npool/nimage =       2
     480571 MiB available memory on the printing compute node when the environment starts


     Reading xml data from directory:

     ./diamond.save/

     IMPORTANT: XC functional enforced from input :
     Exchange-correlation= PBE
                           (   1   4   3   4   0   0   0)
     Any further DFT definition will be discarded
     Please, verify this is what you really want


     Parallelization info
     --------------------
     sticks:   dense  smooth     PW     G-vecs:    dense   smooth      PW
     Min         156     156     69                 1917     1917     533
     Max         157     157     70                 1922     1922     534
     Sum         313     313    139                 3839     3839    1067

     Using Slab Decomposition

     Reading collected, re-writing distributed wavefunctions
     high-symmetry point:  0.0000 0.0000 0.0000   x coordinate   0.0000
     high-symmetry point:  0.5000 0.0000 0.5000   x coordinate   0.7071
     high-symmetry point:  0.3750 0.3750 0.7500   x coordinate   1.1748
     high-symmetry point:  0.0000 0.0000 0.0000   x coordinate   2.0934
     high-symmetry point:  0.5000 0.5000 0.5000   x coordinate   2.9594
     high-symmetry point:  0.2500 0.2500 0.2500   x coordinate   3.3924

     Plottable bands (eV) written to file bands.dat.gnu
     Bands written to file bands.dat

 **************************************************************************

                    xk=(   0.00000,   0.00000,   0.00000  )

     point group O_h (m-3m) 
     there are 10 classes
     the character table:

       E     8C3   3C2   6C4   6C2'  i     8S6   3s_h  6S4   6s_d 
A_1g   1.00  1.00  1.00  1.00  1.00  1.00  1.00  1.00  1.00  1.00
A_2g   1.00  1.00  1.00 -1.00 -1.00  1.00  1.00  1.00 -1.00 -1.00
E_g    2.00 -1.00  2.00  0.00  0.00  2.00 -1.00  2.00  0.00  0.00
T_1g   3.00  0.00 -1.00  1.00 -1.00  3.00  0.00 -1.00  1.00 -1.00
T_2g   3.00  0.00 -1.00 -1.00  1.00  3.00  0.00 -1.00 -1.00  1.00
A_1u   1.00  1.00  1.00  1.00  1.00 -1.00 -1.00 -1.00 -1.00 -1.00
A_2u   1.00  1.00  1.00 -1.00 -1.00 -1.00 -1.00 -1.00  1.00  1.00
E_u    2.00 -1.00  2.00  0.00  0.00 -2.00  1.00 -2.00  0.00  0.00
T_1u   3.00  0.00 -1.00  1.00 -1.00 -3.00  0.00  1.00 -1.00  1.00
T_2u   3.00  0.00 -1.00 -1.00  1.00 -3.00  0.00  1.00  1.00 -1.00

     the symmetry operations in each class and the name of the first element:

     E        1
                                                                 
     8C3     17   19   20   18   24   21   22   23
                                                                 
     3C2      2    4    3
                                                                 
     6C4      7    8   15   16   12   11
                                                                 
     6C2'     5    6   14   13   10    9
                                                                 
     i       25
                                                                 
     8S6     41   43   44   42   48   45   46   47
                                                                 
     3s_h    26   28   27
                                                                 
     6S4     31   32   39   40   36   35
                                                                 
     6s_d    29   30   38   37   34   33
                                                                 

     Band symmetry, O_h (m-3m)  point group:

     e(  1 -  1) =     -8.42720  eV     1   --> A_1g G_1   G_1+
     e(  2 -  4) =     12.11370  eV     3   --> T_2g G_25' G_5+
     e(  5 -  7) =     17.52376  eV     3   --> T_1u G_15  G_4-
     e(  8 -  8) =     23.92535  eV     1   --> A_2u G_2'  G_2-

 **************************************************************************

 **************************************************************************

                    xk=(   0.05000,   0.00000,   0.05000  )

     point group C_2v (mm2) 
     there are  4 classes
     the character table:

       E     C2    s_v   s_v' 
A_1    1.00  1.00  1.00  1.00
A_2    1.00  1.00 -1.00 -1.00
B_1    1.00 -1.00  1.00 -1.00
B_2    1.00 -1.00 -1.00  1.00

     the symmetry operations in each class and the name of the first element:

     E        1
                                                                 
     C2       2
                                                                 
     s_v      3
                                                                 
     s_v'     4
                                                                 

     Band symmetry, C_2v (mm2)  point group:

     e(  1 -  1) =     -8.38322  eV     1   --> A_1  D_1  S_1  
     e(  2 -  2) =     11.85493  eV     1   --> B_2  D_4  S_4  
     e(  3 -  3) =     11.93648  eV     1   --> A_1  D_1  S_1  
     e(  4 -  4) =     12.08798  eV     1   --> A_2  D_2  S_2  
     e(  5 -  5) =     17.56781  eV     1   --> B_1  D_3  S_3  
     e(  6 -  6) =     17.65845  eV     1   --> A_1  D_1  S_1  
     e(  7 -  7) =     17.73053  eV     1   --> B_2  D_4  S_4  
     e(  8 -  8) =     23.97521  eV     1   --> B_2  D_4  S_4  

 **************************************************************************

 **************************************************************************

                    xk=(   0.10000,   0.00000,   0.10000  )

     Band symmetry, C_2v (mm2)  point group:

     e(  1 -  1) =     -8.25136  eV     1   --> A_1  D_1  S_1  
     e(  2 -  2) =     11.18680  eV     1   --> B_2  D_4  S_4  
     e(  3 -  3) =     11.45295  eV     1   --> A_1  D_1  S_1  
     e(  4 -  4) =     12.00658  eV     1   --> A_2  D_2  S_2  
     e(  5 -  5) =     17.70008  eV     1   --> B_1  D_3  S_3  
     e(  6 -  6) =     18.02115  eV     1   --> A_1  D_1  S_1  
     e(  7 -  7) =     18.23459  eV     1   --> B_2  D_4  S_4  
     e(  8 -  8) =     24.11648  eV     1   --> B_2  D_4  S_4  

 **************************************************************************

 **************************************************************************

                    xk=(   0.15000,   0.00000,   0.15000  )

     Band symmetry, C_2v (mm2)  point group:

     e(  1 -  1) =     -8.03209  eV     1   --> A_1  D_1  S_1  
     e(  2 -  2) =     10.29711  eV     1   --> B_2  D_4  S_4  
     e(  3 -  3) =     10.76320  eV     1   --> A_1  D_1  S_1  
     e(  4 -  4) =     11.86686  eV     1   --> A_2  D_2  S_2  
     e(  5 -  5) =     17.91883  eV     1   --> B_1  D_3  S_3  
     e(  6 -  6) =     18.52865  eV     1   --> A_1  D_1  S_1  
     e(  7 -  7) =     18.83360  eV     1   --> B_2  D_4  S_4  
     e(  8 -  8) =     24.32176  eV     1   --> B_2  D_4  S_4  

 **************************************************************************

 **************************************************************************

                    xk=(   0.20000,   0.00000,   0.20000  )

     Band symmetry, C_2v (mm2)  point group:

     e(  1 -  1) =     -7.72611  eV     1   --> A_1  D_1  S_1  
     e(  2 -  2) =      9.31285  eV     1   --> B_2  D_4  S_4  
     e(  3 -  3) =      9.95529  eV     1   --> A_1  D_1  S_1  
     e(  4 -  4) =     11.66604  eV     1   --> A_2  D_2  S_2  
     e(  5 -  5) =     18.22334  eV     1   --> B_1  D_3  S_3  
     e(  6 -  6) =     19.12348  eV     1   --> A_1  D_1  S_1  
     e(  7 -  7) =     19.39106  eV     1   --> B_2  D_4  S_4  
     e(  8 -  8) =     24.54103  eV     1   --> B_2  D_4  S_4  

 **************************************************************************

 **************************************************************************

                    xk=(   0.25000,   0.00000,   0.25000  )

     Band symmetry, C_2v (mm2)  point group:

     e(  1 -  1) =     -7.33458  eV     1   --> A_1  D_1  S_1  
     e(  2 -  2) =      8.30259  eV     1   --> B_2  D_4  S_4  
     e(  3 -  3) =      9.08959  eV     1   --> A_1  D_1  S_1  
     e(  4 -  4) =     11.40138  eV     1   --> A_2  D_2  S_2  
     e(  5 -  5) =     18.61079  eV     1   --> B_1  D_3  S_3  
     e(  6 -  6) =     19.77808  eV     1   --> A_1  D_1  S_1  
     e(  7 -  7) =     19.83718  eV     1   --> B_2  D_4  S_4  
     e(  8 -  8) =     24.71079  eV     1   --> B_2  D_4  S_4  

 **************************************************************************

 **************************************************************************

                    xk=(   0.30000,   0.00000,   0.30000  )

     Band symmetry, C_2v (mm2)  point group:

     e(  1 -  1) =     -6.85912  eV     1   --> A_1  D_1  S_1  
     e(  2 -  2) =      7.30390  eV     1   --> B_2  D_4  S_4  
     e(  3 -  3) =      8.20688  eV     1   --> A_1  D_1  S_1  
     e(  4 -  4) =     11.07414  eV     1   --> A_2  D_2  S_2  
     e(  5 -  5) =     19.07938  eV     1   --> B_1  D_3  S_3  
     e(  6 -  6) =     20.13874  eV     1   --> B_2  D_4  S_4  
     e(  7 -  7) =     20.48275  eV     1   --> A_1  D_1  S_1  
     e(  8 -  8) =     24.79194  eV     1   --> B_2  D_4  S_4  

 **************************************************************************

 **************************************************************************

                    xk=(   0.35000,   0.00000,   0.35000  )

     Band symmetry, C_2v (mm2)  point group:

     e(  1 -  1) =     -6.30225  eV     1   --> A_1  D_1  S_1  
     e(  2 -  2) =      6.33893  eV     1   --> B_2  D_4  S_4  
     e(  3 -  3) =      7.33532  eV     1   --> A_1  D_1  S_1  
     e(  4 -  4) =     10.68853  eV     1   --> A_2  D_2  S_2  
     e(  5 -  5) =     19.62312  eV     1   --> B_1  D_3  S_3  
     e(  6 -  6) =     20.27539  eV     1   --> B_2  D_4  S_4  
     e(  7 -  7) =     21.23525  eV     1   --> A_1  D_1  S_1  
     e(  8 -  8) =     24.80486  eV     1   --> B_2  D_4  S_4  

 **************************************************************************

 **************************************************************************

                    xk=(   0.40000,   0.00000,   0.40000  )

     Band symmetry, C_2v (mm2)  point group:

     e(  1 -  1) =     -5.66752  eV     1   --> A_1  D_1  S_1  
     e(  2 -  2) =      5.42146  eV     1   --> B_2  D_4  S_4  
     e(  3 -  3) =      6.49662  eV     1   --> A_1  D_1  S_1  
     e(  4 -  4) =     10.25481  eV     1   --> A_2  D_2  S_2  
     e(  5 -  5) =     20.23764  eV     1   --> B_2  D_4  S_4  
     e(  6 -  6) =     20.23809  eV     1   --> B_1  D_3  S_3  
     e(  7 -  7) =     22.03614  eV     1   --> A_1  D_1  S_1  
     e(  8 -  8) =     24.81605  eV     1   --> B_2  D_4  S_4  

 **************************************************************************

 **************************************************************************

                    xk=(   0.45000,   0.00000,   0.45000  )

     Band symmetry, C_2v (mm2)  point group:

     e(  1 -  1) =     -4.96036  eV     1   --> A_1  D_1  S_1  
     e(  2 -  2) =      4.56054  eV     1   --> B_2  D_4  S_4  
     e(  3 -  3) =      5.70821  eV     1   --> A_1  D_1  S_1  
     e(  4 -  4) =      9.78611  eV     1   --> A_2  D_2  S_2  
     e(  5 -  5) =     20.03514  eV     1   --> B_2  D_4  S_4  
     e(  6 -  6) =     20.91715  eV     1   --> B_1  D_3  S_3  
     e(  7 -  7) =     22.88188  eV     1   --> A_1  D_1  S_1  
     e(  8 -  8) =     24.88844  eV     1   --> B_2  D_4  S_4  

 **************************************************************************

 **************************************************************************

                    xk=(   0.50000,   0.00000,   0.50000  )

     Band symmetry, C_2v (mm2)  point group:

     e(  1 -  1) =     -4.18925  eV     1   --> A_1  D_1  S_1  
     e(  2 -  2) =      3.76275  eV     1   --> B_2  D_4  S_4  
     e(  3 -  3) =      4.98665  eV     1   --> A_1  D_1  S_1  
     e(  4 -  4) =      9.29846  eV     1   --> A_2  D_2  S_2  
     e(  5 -  5) =     19.70419  eV     1   --> B_2  D_4  S_4  
     e(  6 -  6) =     21.65294  eV     1   --> B_1  D_3  S_3  
     e(  7 -  7) =     23.75898  eV     1   --> A_1  D_1  S_1  
     e(  8 -  8) =     25.04940  eV     1   --> B_2  D_4  S_4  

 **************************************************************************

 **************************************************************************

                    xk=(   0.48750,   0.03750,   0.52500  )

     point group C_1 (1)    
     there are  1 classes
     the character table:

       E    
A      1.00

     the symmetry operations in each class and the name of the first element:

     E        1
                                                                 

     Band symmetry, C_1 (1)     point group:

     e(  1 -  1) =     -4.07286  eV     1   --> A              
     e(  2 -  2) =      3.48362  eV     1   --> A              
     e(  3 -  3) =      5.09672  eV     1   --> A              
     e(  4 -  4) =      9.21129  eV     1   --> A              
     e(  5 -  5) =     19.70034  eV     1   --> A              
     e(  6 -  6) =     21.66987  eV     1   --> A              
     e(  7 -  7) =     23.77590  eV     1   --> A              
     e(  8 -  8) =     25.15663  eV     1   --> A              

 **************************************************************************

 **************************************************************************

                    xk=(   0.47500,   0.07500,   0.55000  )

     Band symmetry, C_1 (1)     point group:

     e(  1 -  1) =     -3.92424  eV     1   --> A              
     e(  2 -  2) =      3.01142  eV     1   --> A              
     e(  3 -  3) =      5.42422  eV     1   --> A              
     e(  4 -  4) =      9.07625  eV     1   --> A              
     e(  5 -  5) =     19.78249  eV     1   --> A              
     e(  6 -  6) =     21.53125  eV     1   --> A              
     e(  7 -  7) =     23.68064  eV     1   --> A              
     e(  8 -  8) =     25.35903  eV     1   --> A              

 **************************************************************************

 **************************************************************************

                    xk=(   0.46250,   0.11250,   0.57500  )

     Band symmetry, C_1 (1)     point group:

     e(  1 -  1) =     -3.74524  eV     1   --> A              
     e(  2 -  2) =      2.49893  eV     1   --> A              
     e(  3 -  3) =      5.81345  eV     1   --> A              
     e(  4 -  4) =      8.90184  eV     1   --> A              
     e(  5 -  5) =     19.94123  eV     1   --> A              
     e(  6 -  6) =     21.25354  eV     1   --> A              
     e(  7 -  7) =     23.58787  eV     1   --> A              
     e(  8 -  8) =     25.54780  eV     1   --> A              

 **************************************************************************

 **************************************************************************

                    xk=(   0.45000,   0.15000,   0.60000  )

     Band symmetry, C_1 (1)     point group:

     e(  1 -  1) =     -3.53866  eV     1   --> A              
     e(  2 -  2) =      1.99462  eV     1   --> A              
     e(  3 -  3) =      6.20813  eV     1   --> A              
     e(  4 -  4) =      8.70205  eV     1   --> A              
     e(  5 -  5) =     20.14478  eV     1   --> A              
     e(  6 -  6) =     20.90531  eV     1   --> A              
     e(  7 -  7) =     23.53294  eV     1   --> A              
     e(  8 -  8) =     25.68246  eV     1   --> A              

 **************************************************************************

 **************************************************************************

                    xk=(   0.43750,   0.18750,   0.62500  )

     Band symmetry, C_1 (1)     point group:

     e(  1 -  1) =     -3.30908  eV     1   --> A              
     e(  2 -  2) =      1.51854  eV     1   --> A              
     e(  3 -  3) =      6.57172  eV     1   --> A              
     e(  4 -  4) =      8.49828  eV     1   --> A              
     e(  5 -  5) =     20.19150  eV     1   --> A              
     e(  6 -  6) =     20.73585  eV     1   --> A              
     e(  7 -  7) =     23.49744  eV     1   --> A              
     e(  8 -  8) =     25.76889  eV     1   --> A              

 **************************************************************************

 **************************************************************************

                    xk=(   0.42500,   0.22500,   0.65000  )

     Band symmetry, C_1 (1)     point group:

     e(  1 -  1) =     -3.06385  eV     1   --> A              
     e(  2 -  2) =      1.08497  eV     1   --> A              
     e(  3 -  3) =      6.85728  eV     1   --> A              
     e(  4 -  4) =      8.32782  eV     1   --> A              
     e(  5 -  5) =     19.87551  eV     1   --> A              
     e(  6 -  6) =     20.99218  eV     1   --> A              
     e(  7 -  7) =     23.44988  eV     1   --> A              
     e(  8 -  8) =     25.83376  eV     1   --> A              

 **************************************************************************

 **************************************************************************

                    xk=(   0.41250,   0.26250,   0.67500  )

     Band symmetry, C_1 (1)     point group:

     e(  1 -  1) =     -2.81537  eV     1   --> A              
     e(  2 -  2) =      0.70983  eV     1   --> A              
     e(  3 -  3) =      6.99708  eV     1   --> A              
     e(  4 -  4) =      8.24856  eV     1   --> A              
     e(  5 -  5) =     19.52292  eV     1   --> A              
     e(  6 -  6) =     21.37818  eV     1   --> A              
     e(  7 -  7) =     23.36365  eV     1   --> A              
     e(  8 -  8) =     25.90702  eV     1   --> A              

 **************************************************************************

 **************************************************************************

                    xk=(   0.40000,   0.30000,   0.70000  )

     Band symmetry, C_1 (1)     point group:

     e(  1 -  1) =     -2.58441  eV     1   --> A              
     e(  2 -  2) =      0.41570  eV     1   --> A              
     e(  3 -  3) =      6.95380  eV     1   --> A              
     e(  4 -  4) =      8.28660  eV     1   --> A              
     e(  5 -  5) =     19.24178  eV     1   --> A              
     e(  6 -  6) =     21.80289  eV     1   --> A              
     e(  7 -  7) =     23.22418  eV     1   --> A              
     e(  8 -  8) =     26.00998  eV     1   --> A              

 **************************************************************************

 **************************************************************************

                    xk=(   0.38750,   0.33750,   0.72500  )

     Band symmetry, C_1 (1)     point group:

     e(  1 -  1) =     -2.40295  eV     1   --> A              
     e(  2 -  2) =      0.23497  eV     1   --> A              
     e(  3 -  3) =      6.78243  eV     1   --> A              
     e(  4 -  4) =      8.37561  eV     1   --> A              
     e(  5 -  5) =     19.07004  eV     1   --> A              
     e(  6 -  6) =     22.22384  eV     1   --> A              
     e(  7 -  7) =     23.04368  eV     1   --> A              
     e(  8 -  8) =     26.14563  eV     1   --> A              

 **************************************************************************

 **************************************************************************

                    xk=(   0.37500,   0.37500,   0.75000  )

     point group C_s (m)    
     there are  2 classes
     the character table:

       E     s    
A'     1.00  1.00
A''    1.00 -1.00

     the symmetry operations in each class and the name of the first element:

     E        1
                                                                 
     s        2
                                                                 

     Band symmetry, C_s (m)     point group:

     e(  1 -  1) =     -2.30725  eV     1   --> A'             
     e(  2 -  2) =      0.20365  eV     1   --> A'             
     e(  3 -  3) =      6.55434  eV     1   --> A'             
     e(  4 -  4) =      8.43703  eV     1   --> A''            
     e(  5 -  5) =     19.02983  eV     1   --> A'             
     e(  6 -  6) =     22.47791  eV     1   --> A''            
     e(  7 -  7) =     22.97545  eV     1   --> A'             
     e(  8 -  8) =     26.29517  eV     1   --> A'             

 **************************************************************************

 **************************************************************************

                    xk=(   0.33750,   0.33750,   0.67500  )

     Band symmetry, C_s (m)     point group:

     e(  1 -  1) =     -2.90213  eV     1   --> A'             
     e(  2 -  2) =      0.62643  eV     1   --> A'             
     e(  3 -  3) =      7.29871  eV     1   --> A'             
     e(  4 -  4) =      8.40469  eV     1   --> A''            
     e(  5 -  5) =     18.96931  eV     1   --> A'             
     e(  6 -  6) =     22.38443  eV     1   --> A''            
     e(  7 -  7) =     22.53665  eV     1   --> A'             
     e(  8 -  8) =     25.78705  eV     1   --> A'             

 **************************************************************************

 **************************************************************************

                    xk=(   0.30000,   0.30000,   0.60000  )

     Band symmetry, C_s (m)     point group:

     e(  1 -  1) =     -3.89618  eV     1   --> A'             
     e(  2 -  2) =      1.68331  eV     1   --> A'             
     e(  3 -  3) =      8.06468  eV     1   --> A'             
     e(  4 -  4) =      8.49968  eV     1   --> A''            
     e(  5 -  5) =     18.93826  eV     1   --> A'             
     e(  6 -  6) =     22.08063  eV     1   --> A'             
     e(  7 -  7) =     22.18896  eV     1   --> A''            
     e(  8 -  8) =     25.30619  eV     1   --> A'             

 **************************************************************************

 **************************************************************************

                    xk=(   0.26250,   0.26250,   0.52500  )

     Band symmetry, C_s (m)     point group:

     e(  1 -  1) =     -4.89611  eV     1   --> A'             
     e(  2 -  2) =      2.98105  eV     1   --> A'             
     e(  3 -  3) =      8.72443  eV     1   --> A''            
     e(  4 -  4) =      8.82529  eV     1   --> A'             
     e(  5 -  5) =     18.88352  eV     1   --> A'             
     e(  6 -  6) =     21.60302  eV     1   --> A'             
     e(  7 -  7) =     21.88525  eV     1   --> A''            
     e(  8 -  8) =     24.99866  eV     1   --> A'             

 **************************************************************************

 **************************************************************************

                    xk=(   0.22500,   0.22500,   0.45000  )

     Band symmetry, C_s (m)     point group:

     e(  1 -  1) =     -5.80530  eV     1   --> A'             
     e(  2 -  2) =      4.41503  eV     1   --> A'             
     e(  3 -  3) =      9.07605  eV     1   --> A''            
     e(  4 -  4) =      9.55609  eV     1   --> A'             
     e(  5 -  5) =     18.75687  eV     1   --> A'             
     e(  6 -  6) =     21.09825  eV     1   --> A'             
     e(  7 -  7) =     21.44809  eV     1   --> A''            
     e(  8 -  8) =     24.88411  eV     1   --> A'             

 **************************************************************************

 **************************************************************************

                    xk=(   0.18750,   0.18750,   0.37500  )

     Band symmetry, C_s (m)     point group:

     e(  1 -  1) =     -6.59352  eV     1   --> A'             
     e(  2 -  2) =      5.93790  eV     1   --> A'             
     e(  3 -  3) =      9.54623  eV     1   --> A''            
     e(  4 -  4) =     10.23561  eV     1   --> A'             
     e(  5 -  5) =     18.54557  eV     1   --> A'             
     e(  6 -  6) =     20.55523  eV     1   --> A'             
     e(  7 -  7) =     20.85512  eV     1   --> A''            
     e(  8 -  8) =     24.86247  eV     1   --> A'             

 **************************************************************************

 **************************************************************************

                    xk=(   0.15000,   0.15000,   0.30000  )

     Band symmetry, C_s (m)     point group:

     e(  1 -  1) =     -7.24787  eV     1   --> A'             
     e(  2 -  2) =      7.50684  eV     1   --> A'             
     e(  3 -  3) =     10.11652  eV     1   --> A''            
     e(  4 -  4) =     10.84461  eV     1   --> A'             
     e(  5 -  5) =     18.27640  eV     1   --> A'             
     e(  6 -  6) =     19.95428  eV     1   --> A'             
     e(  7 -  7) =     20.11144  eV     1   --> A''            
     e(  8 -  8) =     24.76768  eV     1   --> A'             

 **************************************************************************

 **************************************************************************

                    xk=(   0.11250,   0.11250,   0.22500  )

     Band symmetry, C_s (m)     point group:

     e(  1 -  1) =     -7.76155  eV     1   --> A'             
     e(  2 -  2) =      9.06347  eV     1   --> A'             
     e(  3 -  3) =     10.75306  eV     1   --> A''            
     e(  4 -  4) =     11.36272  eV     1   --> A'             
     e(  5 -  5) =     17.99642  eV     1   --> A'             
     e(  6 -  6) =     19.26981  eV     1   --> A''            
     e(  7 -  7) =     19.27517  eV     1   --> A'             
     e(  8 -  8) =     24.52968  eV     1   --> A'             

 **************************************************************************

 **************************************************************************

                    xk=(   0.07500,   0.07500,   0.15000  )

     Band symmetry, C_s (m)     point group:

     e(  1 -  1) =     -8.13069  eV     1   --> A'             
     e(  2 -  2) =     10.50899  eV     1   --> A'             
     e(  3 -  3) =     11.39051  eV     1   --> A''            
     e(  4 -  4) =     11.76544  eV     1   --> A'             
     e(  5 -  5) =     17.75164  eV     1   --> A'             
     e(  6 -  6) =     18.43715  eV     1   --> A''            
     e(  7 -  7) =     18.52941  eV     1   --> A'             
     e(  8 -  8) =     24.23524  eV     1   --> A'             

 **************************************************************************

 **************************************************************************

                    xk=(   0.03750,   0.03750,   0.07500  )

     Band symmetry, C_s (m)     point group:

     e(  1 -  1) =     -8.35297  eV     1   --> A'             
     e(  2 -  2) =     11.64742  eV     1   --> A'             
     e(  3 -  3) =     11.90577  eV     1   --> A''            
     e(  4 -  4) =     12.02458  eV     1   --> A'             
     e(  5 -  5) =     17.58393  eV     1   --> A'             
     e(  6 -  6) =     17.78240  eV     1   --> A''            
     e(  7 -  7) =     17.83880  eV     1   --> A'             
     e(  8 -  8) =     24.00869  eV     1   --> A'             

 **************************************************************************

 **************************************************************************

                    xk=(   0.00000,   0.00000,   0.00000  )

     point group O_h (m-3m) 
     there are 10 classes
     the character table:

       E     8C3   3C2   6C4   6C2'  i     8S6   3s_h  6S4   6s_d 
A_1g   1.00  1.00  1.00  1.00  1.00  1.00  1.00  1.00  1.00  1.00
A_2g   1.00  1.00  1.00 -1.00 -1.00  1.00  1.00  1.00 -1.00 -1.00
E_g    2.00 -1.00  2.00  0.00  0.00  2.00 -1.00  2.00  0.00  0.00
T_1g   3.00  0.00 -1.00  1.00 -1.00  3.00  0.00 -1.00  1.00 -1.00
T_2g   3.00  0.00 -1.00 -1.00  1.00  3.00  0.00 -1.00 -1.00  1.00
A_1u   1.00  1.00  1.00  1.00  1.00 -1.00 -1.00 -1.00 -1.00 -1.00
A_2u   1.00  1.00  1.00 -1.00 -1.00 -1.00 -1.00 -1.00  1.00  1.00
E_u    2.00 -1.00  2.00  0.00  0.00 -2.00  1.00 -2.00  0.00  0.00
T_1u   3.00  0.00 -1.00  1.00 -1.00 -3.00  0.00  1.00 -1.00  1.00
T_2u   3.00  0.00 -1.00 -1.00  1.00 -3.00  0.00  1.00  1.00 -1.00

     the symmetry operations in each class and the name of the first element:

     E        1
                                                                 
     8C3     17   19   20   18   24   21   22   23
                                                                 
     3C2      2    4    3
                                                                 
     6C4      7    8   15   16   12   11
                                                                 
     6C2'     5    6   14   13   10    9
                                                                 
     i       25
                                                                 
     8S6     41   43   44   42   48   45   46   47
                                                                 
     3s_h    26   28   27
                                                                 
     6S4     31   32   39   40   36   35
                                                                 
     6s_d    29   30   38   37   34   33
                                                                 

     Band symmetry, O_h (m-3m)  point group:

     e(  1 -  1) =     -8.42720  eV     1   --> A_1g G_1   G_1+
     e(  2 -  4) =     12.11370  eV     3   --> T_2g G_25' G_5+
     e(  5 -  7) =     17.52376  eV     3   --> T_1u G_15  G_4-
     e(  8 -  8) =     23.92535  eV     1   --> A_2u G_2'  G_2-

 **************************************************************************

 **************************************************************************

                    xk=(   0.05000,   0.05000,   0.05000  )

     point group C_3v (3m)  
     there are  3 classes
     the character table:

       E     2C3   3s_v 
A_1    1.00  1.00  1.00
A_2    1.00  1.00 -1.00
E      2.00 -1.00  0.00

     the symmetry operations in each class and the name of the first element:

     E        1
                                                                 
     2C3      2    3
                                                                 
     3s_v     4    5    6
                                                                 

     Band symmetry, C_3v (3m)   point group:

     e(  1 -  1) =     -8.36122  eV     1   --> A_1  L_1       
     e(  2 -  2) =     11.65858  eV     1   --> A_1  L_1       
     e(  3 -  4) =     12.00051  eV     2   --> E    L_3       
     e(  5 -  6) =     17.67255  eV     2   --> E    L_3       
     e(  7 -  7) =     17.79159  eV     1   --> A_1  L_1       
     e(  8 -  8) =     24.00116  eV     1   --> A_1  L_1       

 **************************************************************************

 **************************************************************************

                    xk=(   0.10000,   0.10000,   0.10000  )

     Band symmetry, C_3v (3m)   point group:

     e(  1 -  1) =     -8.16359  eV     1   --> A_1  L_1       
     e(  2 -  2) =     10.53075  eV     1   --> A_1  L_1       
     e(  3 -  4) =     11.70226  eV     2   --> E    L_3       
     e(  5 -  6) =     18.06675  eV     2   --> E    L_3       
     e(  7 -  7) =     18.35983  eV     1   --> A_1  L_1       
     e(  8 -  8) =     24.22873  eV     1   --> A_1  L_1       

 **************************************************************************

 **************************************************************************

                    xk=(   0.15000,   0.15000,   0.15000  )

     Band symmetry, C_3v (3m)   point group:

     e(  1 -  1) =     -7.83535  eV     1   --> A_1  L_1       
     e(  2 -  2) =      9.07415  eV     1   --> A_1  L_1       
     e(  3 -  4) =     11.30491  eV     2   --> E    L_3       
     e(  5 -  6) =     18.59035  eV     2   --> E    L_3       
     e(  7 -  7) =     18.91989  eV     1   --> A_1  L_1       
     e(  8 -  8) =     24.60103  eV     1   --> A_1  L_1       

 **************************************************************************

 **************************************************************************

                    xk=(   0.20000,   0.20000,   0.20000  )

     Band symmetry, C_3v (3m)   point group:

     e(  1 -  1) =     -7.37834  eV     1   --> A_1  L_1       
     e(  2 -  2) =      7.48195  eV     1   --> A_1  L_1       
     e(  3 -  4) =     10.88339  eV     2   --> E    L_3       
     e(  5 -  6) =     19.12795  eV     2   --> E    L_3       
     e(  7 -  7) =     19.35095  eV     1   --> A_1  L_1       
     e(  8 -  8) =     25.08741  eV     1   --> A_1  L_1       

 **************************************************************************

 **************************************************************************

                    xk=(   0.25000,   0.25000,   0.25000  )

     Band symmetry, C_3v (3m)   point group:

     e(  1 -  1) =     -6.79587  eV     1   --> A_1  L_1       
     e(  2 -  2) =      5.85344  eV     1   --> A_1  L_1       
     e(  3 -  4) =     10.48533  eV     2   --> E    L_3       
     e(  5 -  6) =     19.59062  eV     2   --> E    L_3       
     e(  7 -  7) =     19.64578  eV     1   --> A_1  L_1       
     e(  8 -  8) =     25.63099  eV     1   --> A_1  L_1       

 **************************************************************************

 **************************************************************************

                    xk=(   0.30000,   0.30000,   0.30000  )

     Band symmetry, C_3v (3m)   point group:

     e(  1 -  1) =     -6.09367  eV     1   --> A_1  L_1       
     e(  2 -  2) =      4.24808  eV     1   --> A_1  L_1       
     e(  3 -  4) =     10.13835  eV     2   --> E    L_3       
     e(  5 -  5) =     19.83715  eV     1   --> A_1  L_1       
     e(  6 -  7) =     19.92922  eV     2   --> E    L_3       
     e(  8 -  8) =     26.16155  eV     1   --> A_1  L_1       

 **************************************************************************

 **************************************************************************

                    xk=(   0.35000,   0.35000,   0.35000  )

     Band symmetry, C_3v (3m)   point group:

     e(  1 -  1) =     -5.28312  eV     1   --> A_1  L_1       
     e(  2 -  2) =      2.70956  eV     1   --> A_1  L_1       
     e(  3 -  4) =      9.85836  eV     2   --> E    L_3       
     e(  5 -  5) =     19.95915  eV     1   --> A_1  L_1       
     e(  6 -  7) =     20.13761  eV     2   --> E    L_3       
     e(  8 -  8) =     26.60942  eV     1   --> A_1  L_1       

 **************************************************************************

 **************************************************************************

                    xk=(   0.40000,   0.40000,   0.40000  )

     Band symmetry, C_3v (3m)   point group:

     e(  1 -  1) =     -4.39190  eV     1   --> A_1  L_1       
     e(  2 -  2) =      1.28605  eV     1   --> A_1  L_1       
     e(  3 -  4) =      9.65406  eV     2   --> E    L_3       
     e(  5 -  5) =     20.03388  eV     1   --> A_1  L_1       
     e(  6 -  7) =     20.24410  eV     2   --> E    L_3       
     e(  8 -  8) =     26.92616  eV     1   --> A_1  L_1       

 **************************************************************************

 **************************************************************************

                    xk=(   0.45000,   0.45000,   0.45000  )

     Band symmetry, C_3v (3m)   point group:

     e(  1 -  1) =     -3.51225  eV     1   --> A_1  L_1       
     e(  2 -  2) =      0.08253  eV     1   --> A_1  L_1       
     e(  3 -  4) =      9.53010  eV     2   --> E    L_3       
     e(  5 -  5) =     20.07463  eV     1   --> A_1  L_1       
     e(  6 -  7) =     20.28819  eV     2   --> E    L_3       
     e(  8 -  8) =     27.10276  eV     1   --> A_1  L_1       

 **************************************************************************

 **************************************************************************

                    xk=(   0.50000,   0.50000,   0.50000  )

     zone border point and non-symmorphic group 
     symmetry decomposition not available

 **************************************************************************

 **************************************************************************

                    xk=(   0.47500,   0.47500,   0.47500  )

     point group C_3v (3m)  
     there are  3 classes
     the character table:

       E     2C3   3s_v 
A_1    1.00  1.00  1.00
A_2    1.00  1.00 -1.00
E      2.00 -1.00  0.00

     the symmetry operations in each class and the name of the first element:

     E        1
                                                                 
     2C3      2    3
                                                                 
     3s_v     4    5    6
                                                                 

     Band symmetry, C_3v (3m)   point group:

     e(  1 -  1) =     -3.17473  eV     1   --> A_1  L_1       
     e(  2 -  2) =     -0.33644  eV     1   --> A_1  L_1       
     e(  3 -  4) =      9.49896  eV     2   --> E    L_3       
     e(  5 -  5) =     20.08442  eV     1   --> A_1  L_1       
     e(  6 -  7) =     20.29696  eV     2   --> E    L_3       
     e(  8 -  8) =     27.14410  eV     1   --> A_1  L_1       

 **************************************************************************

 **************************************************************************

                    xk=(   0.45000,   0.45000,   0.45000  )

     Band symmetry, C_3v (3m)   point group:

     e(  1 -  1) =     -3.51225  eV     1   --> A_1  L_1       
     e(  2 -  2) =      0.08253  eV     1   --> A_1  L_1       
     e(  3 -  4) =      9.53010  eV     2   --> E    L_3       
     e(  5 -  5) =     20.07463  eV     1   --> A_1  L_1       
     e(  6 -  7) =     20.28819  eV     2   --> E    L_3       
     e(  8 -  8) =     27.10276  eV     1   --> A_1  L_1       

 **************************************************************************

 **************************************************************************

                    xk=(   0.42500,   0.42500,   0.42500  )

     Band symmetry, C_3v (3m)   point group:

     e(  1 -  1) =     -3.93847  eV     1   --> A_1  L_1       
     e(  2 -  2) =      0.64412  eV     1   --> A_1  L_1       
     e(  3 -  4) =      9.58195  eV     2   --> E    L_3       
     e(  5 -  5) =     20.05805  eV     1   --> A_1  L_1       
     e(  6 -  7) =     20.27208  eV     2   --> E    L_3       
     e(  8 -  8) =     27.03195  eV     1   --> A_1  L_1       

 **************************************************************************

 **************************************************************************

                    xk=(   0.40000,   0.40000,   0.40000  )

     Band symmetry, C_3v (3m)   point group:

     e(  1 -  1) =     -4.39190  eV     1   --> A_1  L_1       
     e(  2 -  2) =      1.28605  eV     1   --> A_1  L_1       
     e(  3 -  4) =      9.65406  eV     2   --> E    L_3       
     e(  5 -  5) =     20.03388  eV     1   --> A_1  L_1       
     e(  6 -  7) =     20.24410  eV     2   --> E    L_3       
     e(  8 -  8) =     26.92616  eV     1   --> A_1  L_1       

 **************************************************************************

 **************************************************************************

                    xk=(   0.37500,   0.37500,   0.37500  )

     Band symmetry, C_3v (3m)   point group:

     e(  1 -  1) =     -4.84451  eV     1   --> A_1  L_1       
     e(  2 -  2) =      1.97943  eV     1   --> A_1  L_1       
     e(  3 -  4) =      9.74636  eV     2   --> E    L_3       
     e(  5 -  5) =     20.00145  eV     1   --> A_1  L_1       
     e(  6 -  7) =     20.20116  eV     2   --> E    L_3       
     e(  8 -  8) =     26.78542  eV     1   --> A_1  L_1       

 **************************************************************************

 **************************************************************************

                    xk=(   0.35000,   0.35000,   0.35000  )

     Band symmetry, C_3v (3m)   point group:

     e(  1 -  1) =     -5.28312  eV     1   --> A_1  L_1       
     e(  2 -  2) =      2.70956  eV     1   --> A_1  L_1       
     e(  3 -  4) =      9.85836  eV     2   --> E    L_3       
     e(  5 -  5) =     19.95915  eV     1   --> A_1  L_1       
     e(  6 -  7) =     20.13761  eV     2   --> E    L_3       
     e(  8 -  8) =     26.60942  eV     1   --> A_1  L_1       

 **************************************************************************

 **************************************************************************

                    xk=(   0.32500,   0.32500,   0.32500  )

     Band symmetry, C_3v (3m)   point group:

     e(  1 -  1) =     -5.70083  eV     1   --> A_1  L_1       
     e(  2 -  2) =      3.46771  eV     1   --> A_1  L_1       
     e(  3 -  4) =      9.98930  eV     2   --> E    L_3       
     e(  5 -  5) =     19.90520  eV     1   --> A_1  L_1       
     e(  6 -  7) =     20.04821  eV     2   --> E    L_3       
     e(  8 -  8) =     26.39935  eV     1   --> A_1  L_1       

 **************************************************************************

 **************************************************************************

                    xk=(   0.30000,   0.30000,   0.30000  )

     Band symmetry, C_3v (3m)   point group:

     e(  1 -  1) =     -6.09367  eV     1   --> A_1  L_1       
     e(  2 -  2) =      4.24808  eV     1   --> A_1  L_1       
     e(  3 -  4) =     10.13835  eV     2   --> E    L_3       
     e(  5 -  5) =     19.83715  eV     1   --> A_1  L_1       
     e(  6 -  7) =     19.92922  eV     2   --> E    L_3       
     e(  8 -  8) =     26.16155  eV     1   --> A_1  L_1       

 **************************************************************************

 **************************************************************************

                    xk=(   0.27500,   0.27500,   0.27500  )

     Band symmetry, C_3v (3m)   point group:

     e(  1 -  1) =     -6.45922  eV     1   --> A_1  L_1       
     e(  2 -  2) =      5.04495  eV     1   --> A_1  L_1       
     e(  3 -  4) =     10.30417  eV     2   --> E    L_3       
     e(  5 -  5) =     19.75178  eV     1   --> A_1  L_1       
     e(  6 -  7) =     19.77679  eV     2   --> E    L_3       
     e(  8 -  8) =     25.90182  eV     1   --> A_1  L_1       

 **************************************************************************

 **************************************************************************

                    xk=(   0.25000,   0.25000,   0.25000  )

     Band symmetry, C_3v (3m)   point group:

     e(  1 -  1) =     -6.79587  eV     1   --> A_1  L_1       
     e(  2 -  2) =      5.85344  eV     1   --> A_1  L_1       
     e(  3 -  4) =     10.48533  eV     2   --> E    L_3       
     e(  5 -  6) =     19.59062  eV     2   --> E    L_3       
     e(  7 -  7) =     19.64578  eV     1   --> A_1  L_1       
     e(  8 -  8) =     25.63099  eV     1   --> A_1  L_1       

 **************************************************************************

     BANDS        :      0.38s CPU      0.41s WALL


   This run was terminated on:  14:31:40   6Oct2024            

=------------------------------------------------------------------------------=
   JOB DONE.
=------------------------------------------------------------------------------=
