
     Program BANDS v.6.2 starts on  4Jun2019 at 12:48:36 

     This program is part of the open-source Quantum ESPRESSO suite
     for quantum simulation of materials; please cite
         "P. Giannozzi et al., J. Phys.:Condens. Matter 21 395502 (2009);
         "P. Giannozzi et al., J. Phys.:Condens. Matter 29 465901 (2017);
          URL http://www.quantum-espresso.org", 
     in publications or presentations arising from this work. More details at
     http://www.quantum-espresso.org/quote

     Serial version

     Reading data from directory:
     ./si.save/

     IMPORTANT: XC functional enforced from input :
     Exchange-correlation      = PBE ( 1  4  3  4 0 0)
     Any further DFT definition will be discarded
     Please, verify this is what you really want


     G-vector sticks info
     --------------------
     sticks:   dense  smooth     PW     G-vecs:    dense   smooth      PW
     Sum         733     583    187                12939     9257    1687

     high-symmetry point:  0.5000 0.5000 0.5000   x coordinate   0.0000
     high-symmetry point:  0.0000 0.0000 0.0000   x coordinate   0.8660
     high-symmetry point:  0.0000 0.0000 1.0000   x coordinate   1.8660
     high-symmetry point:  0.0000 1.0000 1.0000   x coordinate   2.8660
     high-symmetry point:  0.0000 0.0000 0.0000   x coordinate   4.2802

     Plottable bands (eV) written to file bands.dat.gnu
     Bands written to file bands.dat

 **************************************************************************

                    xk=(   0.50000,   0.50000,   0.50000  )

     zone border point and non-symmorphic group 
     symmetry decomposition not available

 **************************************************************************

 **************************************************************************

                    xk=(   0.40000,   0.40000,   0.40000  )

     point group C_3v (3m)  
     there are  3 classes
     the character table:

       E     2C3   3s_v 
A_1    1.00  1.00  1.00
A_2    1.00  1.00 -1.00
E      2.00 -1.00  0.00

     the symmetry operations in each class and the name of the first element:

     E        1
                                                                 
     2C3      2    3
                                                                 
     3s_v     4    5    6
                                                                 

     Band symmetry, C_3v (3m)   point group:

     e(  1 -  1) =     -3.88166  eV     1   --> A_1  L_1       
     e(  2 -  2) =     -0.07230  eV     1   --> A_1  L_1       
     e(  3 -  4) =      5.07047  eV     2   --> E    L_3       
     e(  5 -  5) =      7.81783  eV     1   --> A_1  L_1       
     e(  6 -  7) =      9.61664  eV     2   --> E    L_3       
     e(  8 -  8) =     14.04055  eV     1   --> A_1  L_1       

 **************************************************************************

 **************************************************************************

                    xk=(   0.30000,   0.30000,   0.30000  )

     Band symmetry, C_3v (3m)   point group:

     e(  1 -  1) =     -4.62835  eV     1   --> A_1  L_1       
     e(  2 -  2) =      1.40361  eV     1   --> A_1  L_1       
     e(  3 -  4) =      5.28310  eV     2   --> E    L_3       
     e(  5 -  5) =      8.05694  eV     1   --> A_1  L_1       
     e(  6 -  7) =      9.73344  eV     2   --> E    L_3       
     e(  8 -  8) =     13.79963  eV     1   -->   ?

 **************************************************************************

 **************************************************************************

                    xk=(   0.20000,   0.20000,   0.20000  )

     Band symmetry, C_3v (3m)   point group:

     e(  1 -  1) =     -5.24352  eV     1   --> A_1  L_1       
     e(  2 -  2) =      3.18975  eV     1   --> A_1  L_1       
     e(  3 -  4) =      5.61839  eV     2   --> E    L_3       
     e(  5 -  5) =      8.41785  eV     1   --> A_1  L_1       
     e(  6 -  7) =      9.56215  eV     2   --> E    L_3       
     e(  8 -  8) =     12.24585  eV     1   --> A_1  L_1       

 **************************************************************************

 **************************************************************************

                    xk=(   0.10000,   0.10000,   0.10000  )

     Band symmetry, C_3v (3m)   point group:

     e(  1 -  1) =     -5.62988  eV     1   --> A_1  L_1       
     e(  2 -  2) =      5.05259  eV     1   --> A_1  L_1       
     e(  3 -  4) =      5.99953  eV     2   --> E    L_3       
     e(  5 -  5) =      8.77161  eV     1   --> A_1  L_1       
     e(  6 -  7) =      9.05379  eV     2   --> E    L_3       
     e(  8 -  8) =     10.48185  eV     1   --> A_1  L_1       

 **************************************************************************

 **************************************************************************

                    xk=(   0.00000,   0.00000,   0.00000  )

     point group O_h (m-3m) 
     there are 10 classes
     the character table:

       E     8C3   3C2   6C4   6C2'  i     8S6   3s_h  6S4   6s_d 
A_1g   1.00  1.00  1.00  1.00  1.00  1.00  1.00  1.00  1.00  1.00
A_2g   1.00  1.00  1.00 -1.00 -1.00  1.00  1.00  1.00 -1.00 -1.00
E_g    2.00 -1.00  2.00  0.00  0.00  2.00 -1.00  2.00  0.00  0.00
T_1g   3.00  0.00 -1.00  1.00 -1.00  3.00  0.00 -1.00  1.00 -1.00
T_2g   3.00  0.00 -1.00 -1.00  1.00  3.00  0.00 -1.00 -1.00  1.00
A_1u   1.00  1.00  1.00  1.00  1.00 -1.00 -1.00 -1.00 -1.00 -1.00
A_2u   1.00  1.00  1.00 -1.00 -1.00 -1.00 -1.00 -1.00  1.00  1.00
E_u    2.00 -1.00  2.00  0.00  0.00 -2.00  1.00 -2.00  0.00  0.00
T_1u   3.00  0.00 -1.00  1.00 -1.00 -3.00  0.00  1.00 -1.00  1.00
T_2u   3.00  0.00 -1.00 -1.00  1.00 -3.00  0.00  1.00  1.00 -1.00

     the symmetry operations in each class and the name of the first element:

     E        1
                                                                 
     8C3     17   19   20   18   24   21   22   23
                                                                 
     3C2      2    4    3
                                                                 
     6C4      7    8   15   16   12   11
                                                                 
     6C2'     5    6   14   13   10    9
                                                                 
     i       25
                                                                 
     8S6     41   43   44   42   48   45   46   47
                                                                 
     3s_h    26   28   27
                                                                 
     6S4     31   32   39   40   36   35
                                                                 
     6s_d    29   30   38   37   34   33
                                                                 

     Band symmetry, O_h (m-3m)  point group:

     e(  1 -  1) =     -5.76075  eV     1   --> A_1g G_1   G_1+
     e(  2 -  4) =      6.19811  eV     3   --> T_2g G_25' G_5+
     e(  5 -  7) =      8.76151  eV     3   --> T_1u G_15  G_4-
     e(  8 -  8) =      9.55744  eV     1   --> A_2u G_2'  G_2-

 **************************************************************************

 **************************************************************************

                    xk=(   0.00000,   0.00000,   0.20000  )

     point group C_4v (4mm) 
     there are  5 classes
     the character table:

       E     2C4   C2    2s_v  2s_d 
A_1    1.00  1.00  1.00  1.00  1.00
A_2    1.00  1.00  1.00 -1.00 -1.00
B_1    1.00 -1.00  1.00  1.00 -1.00
B_2    1.00 -1.00  1.00 -1.00  1.00
E      2.00  0.00 -2.00  0.00  0.00

     the symmetry operations in each class and the name of the first element:

     E        1
                                                                 
     2C4      3    4
                                                                 
     C2       2
                                                                 
     2s_v     5    6
                                                                 
     2s_d     7    8
                                                                 

     Band symmetry, C_4v (4mm)  point group:

     e(  1 -  1) =     -5.58596  eV     1   --> A_1  G_1 D_1   
     e(  2 -  2) =      5.25951  eV     1   --> B_2  G_4 D_2'  
     e(  3 -  4) =      5.62146  eV     2   --> E    G_5 D_5   
     e(  5 -  5) =      8.38335  eV     1   --> A_1  G_1 D_1   
     e(  6 -  7) =      9.55246  eV     2   --> E    G_5 D_5   
     e(  8 -  8) =     10.38446  eV     1   --> B_2  G_4 D_2'  

 **************************************************************************

 **************************************************************************

                    xk=(   0.00000,   0.00000,   0.40000  )

     Band symmetry, C_4v (4mm)  point group:

     e(  1 -  1) =     -5.06550  eV     1   --> A_1  G_1 D_1   
     e(  2 -  2) =      3.57449  eV     1   --> B_2  G_4 D_2'  
     e(  3 -  4) =      4.70985  eV     2   --> E    G_5 D_5   
     e(  5 -  5) =      7.66170  eV     1   --> A_1  G_1 D_1   
     e(  6 -  6) =     10.08943  eV     1   --> B_2  G_4 D_2'  
     e(  7 -  8) =     11.09258  eV     2   --> E    G_5 D_5   

 **************************************************************************

 **************************************************************************

                    xk=(   0.00000,   0.00000,   0.60000  )

     Band symmetry, C_4v (4mm)  point group:

     e(  1 -  1) =     -4.21199  eV     1   --> A_1  G_1 D_1   
     e(  2 -  2) =      1.78258  eV     1   --> B_2  G_4 D_2'  
     e(  3 -  4) =      3.96844  eV     2   --> E    G_5 D_5   
     e(  5 -  5) =      7.06270  eV     1   --> A_1  G_1 D_1   
     e(  6 -  6) =      8.61676  eV     1   --> B_2  G_4 D_2'  
     e(  7 -  8) =     12.85064  eV     2   --> E    G_5 D_5   

 **************************************************************************

 **************************************************************************

                    xk=(   0.00000,   0.00000,   0.80000  )

     Band symmetry, C_4v (4mm)  point group:

     e(  1 -  1) =     -3.04940  eV     1   --> A_1  G_1 D_1   
     e(  2 -  2) =      0.02061  eV     1   --> B_2  G_4 D_2'  
     e(  3 -  4) =      3.50341  eV     2   --> E    G_5 D_5   
     e(  5 -  5) =      6.78225  eV     1   --> A_1  G_1 D_1   
     e(  6 -  6) =      7.51341  eV     1   --> B_2  G_4 D_2'  
     e(  7 -  8) =     14.70900  eV     2   --> E    G_5 D_5   

 **************************************************************************

 **************************************************************************

                    xk=(   0.00000,   0.00000,   1.00000  )

     zone border point and non-symmorphic group 
     symmetry decomposition not available

 **************************************************************************

 **************************************************************************

                    xk=(   0.00000,   0.10000,   1.00000  )

     zone border point and non-symmorphic group 
     symmetry decomposition not available

 **************************************************************************

 **************************************************************************

                    xk=(   0.00000,   0.20000,   1.00000  )

     zone border point and non-symmorphic group 
     symmetry decomposition not available

 **************************************************************************

 **************************************************************************

                    xk=(   0.00000,   0.30000,   1.00000  )

     zone border point and non-symmorphic group 
     symmetry decomposition not available

 **************************************************************************

 **************************************************************************

                    xk=(   0.00000,   0.40000,   1.00000  )

     zone border point and non-symmorphic group 
     symmetry decomposition not available

 **************************************************************************

 **************************************************************************

                    xk=(   0.00000,   0.50000,   1.00000  )

     zone border point and non-symmorphic group 
     symmetry decomposition not available

 **************************************************************************

 **************************************************************************

                    xk=(   0.00000,   0.60000,   1.00000  )

     zone border point and non-symmorphic group 
     symmetry decomposition not available

 **************************************************************************

 **************************************************************************

                    xk=(   0.00000,   0.70000,   1.00000  )

     zone border point and non-symmorphic group 
     symmetry decomposition not available

 **************************************************************************

 **************************************************************************

                    xk=(   0.00000,   0.80000,   1.00000  )

     zone border point and non-symmorphic group 
     symmetry decomposition not available

 **************************************************************************

 **************************************************************************

                    xk=(   0.00000,   0.90000,   1.00000  )

     zone border point and non-symmorphic group 
     symmetry decomposition not available

 **************************************************************************

 **************************************************************************

                    xk=(   0.00000,   1.00000,   1.00000  )

     zone border point and non-symmorphic group 
     symmetry decomposition not available

 **************************************************************************

 **************************************************************************

                    xk=(   0.00000,   0.80000,   0.80000  )

     point group C_2v (mm2) 
     there are  4 classes
     the character table:

       E     C2    s_v   s_v' 
A_1    1.00  1.00  1.00  1.00
A_2    1.00  1.00 -1.00 -1.00
B_1    1.00 -1.00  1.00 -1.00
B_2    1.00 -1.00 -1.00  1.00

     the symmetry operations in each class and the name of the first element:

     E        1
                                                                 
     C2       2
                                                                 
     s_v      4
                                                                 
     s_v'     3
                                                                 

     Band symmetry, C_2v (mm2)  point group:

     e(  1 -  1) =     -1.84502  eV     1   --> A_1  D_1  S_1  
     e(  2 -  2) =     -1.23996  eV     1   --> B_1  D_3  S_3  
     e(  3 -  3) =      2.13531  eV     1   --> A_1  D_1  S_1  
     e(  4 -  4) =      3.62209  eV     1   --> A_2  D_2  S_2  
     e(  5 -  5) =      7.23126  eV     1   --> B_1  D_3  S_3  
     e(  6 -  6) =      9.35319  eV     1   --> A_1  D_1  S_1  
     e(  7 -  7) =     14.29485  eV     1   --> B_2  D_4  S_4  
     e(  8 -  8) =     14.87051  eV     1   --> A_1  D_1  S_1  

 **************************************************************************

 **************************************************************************

                    xk=(   0.00000,   0.60000,   0.60000  )

     Band symmetry, C_2v (mm2)  point group:

     e(  1 -  1) =     -2.96849  eV     1   --> A_1  D_1  S_1  
     e(  2 -  2) =     -0.11527  eV     1   --> B_1  D_3  S_3  
     e(  3 -  3) =      1.93468  eV     1   --> A_1  D_1  S_1  
     e(  4 -  4) =      4.38212  eV     1   --> A_2  D_2  S_2  
     e(  5 -  5) =      8.10947  eV     1   --> B_1  D_3  S_3  
     e(  6 -  6) =     11.94845  eV     1   --> B_2  D_4  S_4  
     e(  7 -  7) =     12.25098  eV     1   --> A_1  D_1  S_1  
     e(  8 -  8) =     13.04811  eV     1   --> B_1  D_3  S_3  

 **************************************************************************

 **************************************************************************

                    xk=(   0.00000,   0.40000,   0.40000  )

     Band symmetry, C_2v (mm2)  point group:

     e(  1 -  1) =     -4.41240  eV     1   --> A_1  D_1  S_1  
     e(  2 -  2) =      1.72289  eV     1   --> B_1  D_3  S_3  
     e(  3 -  3) =      3.19843  eV     1   --> A_1  D_1  S_1  
     e(  4 -  4) =      5.35209  eV     1   --> A_2  D_2  S_2  
     e(  5 -  5) =      9.09214  eV     1   --> B_1  D_3  S_3  
     e(  6 -  6) =     10.19195  eV     1   --> B_2  D_4  S_4  
     e(  7 -  7) =     10.51202  eV     1   --> A_1  D_1  S_1  
     e(  8 -  8) =     11.93951  eV     1   --> B_1  D_3  S_3  

 **************************************************************************

 **************************************************************************

                    xk=(   0.00000,   0.20000,   0.20000  )

     Band symmetry, C_2v (mm2)  point group:

     e(  1 -  1) =     -5.41335  eV     1   --> A_1  D_1  S_1  
     e(  2 -  2) =      4.16751  eV     1   --> B_1  D_3  S_3  
     e(  3 -  3) =      5.03781  eV     1   --> A_1  D_1  S_1  
     e(  4 -  4) =      6.02113  eV     1   --> A_2  D_2  S_2  
     e(  5 -  5) =      9.12073  eV     1   --> B_2  D_4  S_4  
     e(  6 -  6) =      9.18094  eV     1   --> B_1  D_3  S_3  
     e(  7 -  7) =      9.31259  eV     1   --> A_1  D_1  S_1  
     e(  8 -  8) =     11.39581  eV     1   --> B_1  D_3  S_3  

 **************************************************************************

 **************************************************************************

                    xk=(   0.00000,   0.00000,   0.00000  )

     point group O_h (m-3m) 
     there are 10 classes
     the character table:

       E     8C3   3C2   6C4   6C2'  i     8S6   3s_h  6S4   6s_d 
A_1g   1.00  1.00  1.00  1.00  1.00  1.00  1.00  1.00  1.00  1.00
A_2g   1.00  1.00  1.00 -1.00 -1.00  1.00  1.00  1.00 -1.00 -1.00
E_g    2.00 -1.00  2.00  0.00  0.00  2.00 -1.00  2.00  0.00  0.00
T_1g   3.00  0.00 -1.00  1.00 -1.00  3.00  0.00 -1.00  1.00 -1.00
T_2g   3.00  0.00 -1.00 -1.00  1.00  3.00  0.00 -1.00 -1.00  1.00
A_1u   1.00  1.00  1.00  1.00  1.00 -1.00 -1.00 -1.00 -1.00 -1.00
A_2u   1.00  1.00  1.00 -1.00 -1.00 -1.00 -1.00 -1.00  1.00  1.00
E_u    2.00 -1.00  2.00  0.00  0.00 -2.00  1.00 -2.00  0.00  0.00
T_1u   3.00  0.00 -1.00  1.00 -1.00 -3.00  0.00  1.00 -1.00  1.00
T_2u   3.00  0.00 -1.00 -1.00  1.00 -3.00  0.00  1.00  1.00 -1.00

     the symmetry operations in each class and the name of the first element:

     E        1
                                                                 
     8C3     17   19   20   18   24   21   22   23
                                                                 
     3C2      2    4    3
                                                                 
     6C4      7    8   15   16   12   11
                                                                 
     6C2'     5    6   14   13   10    9
                                                                 
     i       25
                                                                 
     8S6     41   43   44   42   48   45   46   47
                                                                 
     3s_h    26   28   27
                                                                 
     6S4     31   32   39   40   36   35
                                                                 
     6s_d    29   30   38   37   34   33
                                                                 

     Band symmetry, O_h (m-3m)  point group:

     e(  1 -  1) =     -5.76075  eV     1   --> A_1g G_1   G_1+
     e(  2 -  4) =      6.19811  eV     3   --> T_2g G_25' G_5+
     e(  5 -  7) =      8.76151  eV     3   --> T_1u G_15  G_4-
     e(  8 -  8) =      9.55744  eV     1   --> A_2u G_2'  G_2-

 **************************************************************************

     BANDS        :     2.67s CPU         2.71s WALL


   This run was terminated on:  12:48:39   4Jun2019            

=------------------------------------------------------------------------------=
   JOB DONE.
=------------------------------------------------------------------------------=
