
     Program BANDS v.7.3.1 starts on  5Oct2024 at 23:55:44 

     This program is part of the open-source Quantum ESPRESSO suite
     for quantum simulation of materials; please cite
         "P. Giannozzi et al., J. Phys.:Condens. Matter 21 395502 (2009);
         "P. Giannozzi et al., J. Phys.:Condens. Matter 29 465901 (2017);
         "P. Giannozzi et al., J. Chem. Phys. 152 154105 (2020);
          URL http://www.quantum-espresso.org", 
     in publications or presentations arising from this work. More details at
     http://www.quantum-espresso.org/quote

     Parallel version (MPI & OpenMP), running on       2 processor cores
     Number of MPI processes:                 2
     Threads/MPI process:                     1

     MPI processes distributed on     1 nodes
     R & G space division:  proc/nbgrp/npool/nimage =       2
     508829 MiB available memory on the printing compute node when the environment starts


     Reading xml data from directory:

     ./diamond.save/

     IMPORTANT: XC functional enforced from input :
     Exchange-correlation= PBE
                           (   1   4   3   4   0   0   0)
     Any further DFT definition will be discarded
     Please, verify this is what you really want


     Parallelization info
     --------------------
     sticks:   dense  smooth     PW     G-vecs:    dense   smooth      PW
     Min         156      93     30                 1847      843     165
     Max         157      94     31                 1848      844     166
     Sum         313     187     61                 3695     1687     331

     Using Slab Decomposition

     Reading collected, re-writing distributed wavefunctions
     high-symmetry point:  0.0000 0.0000 0.0000   x coordinate   0.0000
     high-symmetry point:  0.5000 0.0000 0.5000   x coordinate   0.7071
     high-symmetry point:  0.3750 0.3750 0.7500   x coordinate   1.1748
     high-symmetry point:  0.0000 0.0000 0.0000   x coordinate   2.0934
     high-symmetry point:  0.5000 0.5000 0.5000   x coordinate   2.9594
     high-symmetry point:  0.2500 0.2500 0.2500   x coordinate   3.3924

     Plottable bands (eV) written to file bands.dat.gnu
     Bands written to file bands.dat

 **************************************************************************

                    xk=(   0.00000,   0.00000,   0.00000  )

     point group O_h (m-3m) 
     there are 10 classes
     the character table:

       E     8C3   3C2   6C4   6C2'  i     8S6   3s_h  6S4   6s_d 
A_1g   1.00  1.00  1.00  1.00  1.00  1.00  1.00  1.00  1.00  1.00
A_2g   1.00  1.00  1.00 -1.00 -1.00  1.00  1.00  1.00 -1.00 -1.00
E_g    2.00 -1.00  2.00  0.00  0.00  2.00 -1.00  2.00  0.00  0.00
T_1g   3.00  0.00 -1.00  1.00 -1.00  3.00  0.00 -1.00  1.00 -1.00
T_2g   3.00  0.00 -1.00 -1.00  1.00  3.00  0.00 -1.00 -1.00  1.00
A_1u   1.00  1.00  1.00  1.00  1.00 -1.00 -1.00 -1.00 -1.00 -1.00
A_2u   1.00  1.00  1.00 -1.00 -1.00 -1.00 -1.00 -1.00  1.00  1.00
E_u    2.00 -1.00  2.00  0.00  0.00 -2.00  1.00 -2.00  0.00  0.00
T_1u   3.00  0.00 -1.00  1.00 -1.00 -3.00  0.00  1.00 -1.00  1.00
T_2u   3.00  0.00 -1.00 -1.00  1.00 -3.00  0.00  1.00  1.00 -1.00

     the symmetry operations in each class and the name of the first element:

     E        1
                                                                 
     8C3     17   19   20   18   24   21   22   23
                                                                 
     3C2      2    4    3
                                                                 
     6C4      7    8   15   16   12   11
                                                                 
     6C2'     5    6   14   13   10    9
                                                                 
     i       25
                                                                 
     8S6     41   43   44   42   48   45   46   47
                                                                 
     3s_h    26   28   27
                                                                 
     6S4     31   32   39   40   36   35
                                                                 
     6s_d    29   30   38   37   34   33
                                                                 

     Band symmetry, O_h (m-3m)  point group:

     e(  1 -  1) =     -8.12502  eV     1   --> A_1g G_1   G_1+
     e(  2 -  4) =     14.15061  eV     3   --> T_2g G_25' G_5+
     e(  5 -  7) =     19.55041  eV     3   --> T_1u G_15  G_4-
     e(  8 -  8) =     26.99245  eV     1   --> A_2u G_2'  G_2-

 **************************************************************************

 **************************************************************************

                    xk=(   0.05000,   0.00000,   0.05000  )

     point group C_2v (mm2) 
     there are  4 classes
     the character table:

       E     C2    s_v   s_v' 
A_1    1.00  1.00  1.00  1.00
A_2    1.00  1.00 -1.00 -1.00
B_1    1.00 -1.00  1.00 -1.00
B_2    1.00 -1.00 -1.00  1.00

     the symmetry operations in each class and the name of the first element:

     E        1
                                                                 
     C2       2
                                                                 
     s_v      3
                                                                 
     s_v'     4
                                                                 

     Band symmetry, C_2v (mm2)  point group:

     e(  1 -  1) =     -8.08875  eV     1   --> A_1  D_1  S_1  
     e(  2 -  2) =     13.77267  eV     1   --> B_2  D_4  S_4  
     e(  3 -  3) =     13.92612  eV     1   --> A_1  D_1  S_1  
     e(  4 -  4) =     14.09774  eV     1   --> A_2  D_2  S_2  
     e(  5 -  5) =     19.57614  eV     1   --> B_1  D_3  S_3  
     e(  6 -  6) =     19.61662  eV     1   --> A_1  D_1  S_1  
     e(  7 -  7) =     19.76535  eV     1   --> B_2  D_4  S_4  
     e(  8 -  8) =     27.00331  eV     1   --> B_2  D_4  S_4  

 **************************************************************************

 **************************************************************************

                    xk=(   0.10000,   0.00000,   0.10000  )

     Band symmetry, C_2v (mm2)  point group:

     e(  1 -  1) =     -7.96120  eV     1   --> A_1  D_1  S_1  
     e(  2 -  2) =     12.94342  eV     1   --> B_2  D_4  S_4  
     e(  3 -  3) =     13.28885  eV     1   --> A_1  D_1  S_1  
     e(  4 -  4) =     13.97177  eV     1   --> A_2  D_2  S_2  
     e(  5 -  5) =     19.68196  eV     1   --> B_1  D_3  S_3  
     e(  6 -  6) =     20.01191  eV     1   --> A_1  D_1  S_1  
     e(  7 -  7) =     20.27166  eV     1   --> B_2  D_4  S_4  
     e(  8 -  8) =     27.06213  eV     1   --> B_2  D_4  S_4  

 **************************************************************************

 **************************************************************************

                    xk=(   0.15000,   0.00000,   0.15000  )

     Band symmetry, C_2v (mm2)  point group:

     e(  1 -  1) =     -7.73999  eV     1   --> A_1  D_1  S_1  
     e(  2 -  2) =     11.88339  eV     1   --> B_2  D_4  S_4  
     e(  3 -  3) =     12.38773  eV     1   --> A_1  D_1  S_1  
     e(  4 -  4) =     13.68937  eV     1   --> A_2  D_2  S_2  
     e(  5 -  5) =     19.83860  eV     1   --> B_1  D_3  S_3  
     e(  6 -  6) =     20.57712  eV     1   --> A_1  D_1  S_1  
     e(  7 -  7) =     20.89904  eV     1   --> B_2  D_4  S_4  
     e(  8 -  8) =     27.08475  eV     1   --> B_2  D_4  S_4  

 **************************************************************************

 **************************************************************************

                    xk=(   0.20000,   0.00000,   0.20000  )

     Band symmetry, C_2v (mm2)  point group:

     e(  1 -  1) =     -7.41551  eV     1   --> A_1  D_1  S_1  
     e(  2 -  2) =     10.80595  eV     1   --> B_2  D_4  S_4  
     e(  3 -  3) =     11.48217  eV     1   --> A_1  D_1  S_1  
     e(  4 -  4) =     13.46310  eV     1   --> A_2  D_2  S_2  
     e(  5 -  5) =     20.16918  eV     1   --> B_1  D_3  S_3  
     e(  6 -  6) =     21.26622  eV     1   --> A_1  D_1  S_1  
     e(  7 -  7) =     21.52392  eV     1   --> B_2  D_4  S_4  
     e(  8 -  8) =     27.27048  eV     1   --> B_2  D_4  S_4  

 **************************************************************************

 **************************************************************************

                    xk=(   0.25000,   0.00000,   0.25000  )

     Band symmetry, C_2v (mm2)  point group:

     e(  1 -  1) =     -6.99953  eV     1   --> A_1  D_1  S_1  
     e(  2 -  2) =      9.70491  eV     1   --> B_2  D_4  S_4  
     e(  3 -  3) =     10.51587  eV     1   --> A_1  D_1  S_1  
     e(  4 -  4) =     13.16665  eV     1   --> A_2  D_2  S_2  
     e(  5 -  5) =     20.59232  eV     1   --> B_1  D_3  S_3  
     e(  6 -  6) =     21.97704  eV     1   --> A_1  D_1  S_1  
     e(  7 -  7) =     22.01210  eV     1   --> B_2  D_4  S_4  
     e(  8 -  8) =     27.39072  eV     1   --> B_2  D_4  S_4  

 **************************************************************************

 **************************************************************************

                    xk=(   0.30000,   0.00000,   0.30000  )

     Band symmetry, C_2v (mm2)  point group:

     e(  1 -  1) =     -6.48991  eV     1   --> A_1  D_1  S_1  
     e(  2 -  2) =      8.63005  eV     1   --> B_2  D_4  S_4  
     e(  3 -  3) =      9.55527  eV     1   --> A_1  D_1  S_1  
     e(  4 -  4) =     12.80067  eV     1   --> A_2  D_2  S_2  
     e(  5 -  5) =     21.14545  eV     1   --> B_1  D_3  S_3  
     e(  6 -  6) =     22.37342  eV     1   --> B_2  D_4  S_4  
     e(  7 -  7) =     22.77136  eV     1   --> A_1  D_1  S_1  
     e(  8 -  8) =     27.41415  eV     1   --> B_2  D_4  S_4  

 **************************************************************************

 **************************************************************************

                    xk=(   0.35000,   0.00000,   0.35000  )

     Band symmetry, C_2v (mm2)  point group:

     e(  1 -  1) =     -5.89553  eV     1   --> A_1  D_1  S_1  
     e(  2 -  2) =      7.58510  eV     1   --> B_2  D_4  S_4  
     e(  3 -  3) =      8.59505  eV     1   --> A_1  D_1  S_1  
     e(  4 -  4) =     12.36995  eV     1   --> A_2  D_2  S_2  
     e(  5 -  5) =     21.74369  eV     1   --> B_1  D_3  S_3  
     e(  6 -  6) =     22.46901  eV     1   --> B_2  D_4  S_4  
     e(  7 -  7) =     23.58106  eV     1   --> A_1  D_1  S_1  
     e(  8 -  8) =     27.39229  eV     1   --> B_2  D_4  S_4  

 **************************************************************************

 **************************************************************************

                    xk=(   0.40000,   0.00000,   0.40000  )

     Band symmetry, C_2v (mm2)  point group:

     e(  1 -  1) =     -5.23133  eV     1   --> A_1  D_1  S_1  
     e(  2 -  2) =      6.59396  eV     1   --> B_2  D_4  S_4  
     e(  3 -  3) =      7.66571  eV     1   --> A_1  D_1  S_1  
     e(  4 -  4) =     11.88608  eV     1   --> A_2  D_2  S_2  
     e(  5 -  5) =     22.35075  eV     1   --> B_2  D_4  S_4  
     e(  6 -  6) =     22.40602  eV     1   --> B_1  D_3  S_3  
     e(  7 -  7) =     24.44506  eV     1   --> A_1  D_1  S_1  
     e(  8 -  8) =     27.41774  eV     1   --> B_2  D_4  S_4  

 **************************************************************************

 **************************************************************************

                    xk=(   0.45000,   0.00000,   0.45000  )

     Band symmetry, C_2v (mm2)  point group:

     e(  1 -  1) =     -4.47474  eV     1   --> A_1  D_1  S_1  
     e(  2 -  2) =      5.66606  eV     1   --> B_2  D_4  S_4  
     e(  3 -  3) =      6.80193  eV     1   --> A_1  D_1  S_1  
     e(  4 -  4) =     11.36456  eV     1   --> A_2  D_2  S_2  
     e(  5 -  5) =     22.04437  eV     1   --> B_2  D_4  S_4  
     e(  6 -  6) =     23.15903  eV     1   --> B_1  D_3  S_3  
     e(  7 -  7) =     25.37222  eV     1   --> A_1  D_1  S_1  
     e(  8 -  8) =     27.55283  eV     1   --> B_2  D_4  S_4  

 **************************************************************************

 **************************************************************************

                    xk=(   0.50000,   0.00000,   0.50000  )

     Band symmetry, C_2v (mm2)  point group:

     e(  1 -  1) =     -3.64668  eV     1   --> A_1  D_1  S_1  
     e(  2 -  2) =      4.80781  eV     1   --> B_2  D_4  S_4  
     e(  3 -  3) =      6.01160  eV     1   --> A_1  D_1  S_1  
     e(  4 -  4) =     10.82337  eV     1   --> A_2  D_2  S_2  
     e(  5 -  5) =     21.60701  eV     1   --> B_2  D_4  S_4  
     e(  6 -  6) =     23.97928  eV     1   --> B_1  D_3  S_3  
     e(  7 -  7) =     26.35155  eV     1   --> A_1  D_1  S_1  
     e(  8 -  8) =     27.80668  eV     1   --> B_2  D_4  S_4  

 **************************************************************************

 **************************************************************************

                    xk=(   0.48750,   0.03750,   0.52500  )

     point group C_1 (1)    
     there are  1 classes
     the character table:

       E    
A      1.00

     the symmetry operations in each class and the name of the first element:

     E        1
                                                                 

     Band symmetry, C_1 (1)     point group:

     e(  1 -  1) =     -3.53550  eV     1   --> A              
     e(  2 -  2) =      4.48710  eV     1   --> A              
     e(  3 -  3) =      6.13356  eV     1   --> A              
     e(  4 -  4) =     10.69101  eV     1   --> A              
     e(  5 -  5) =     21.59261  eV     1   --> A              
     e(  6 -  6) =     23.94670  eV     1   --> A              
     e(  7 -  7) =     26.35701  eV     1   --> A              
     e(  8 -  8) =     27.90279  eV     1   --> A              

 **************************************************************************

 **************************************************************************

                    xk=(   0.47500,   0.07500,   0.55000  )

     Band symmetry, C_1 (1)     point group:

     e(  1 -  1) =     -3.37498  eV     1   --> A              
     e(  2 -  2) =      3.95877  eV     1   --> A              
     e(  3 -  3) =      6.51557  eV     1   --> A              
     e(  4 -  4) =     10.54354  eV     1   --> A              
     e(  5 -  5) =     21.68839  eV     1   --> A              
     e(  6 -  6) =     23.78288  eV     1   --> A              
     e(  7 -  7) =     26.28209  eV     1   --> A              
     e(  8 -  8) =     28.10732  eV     1   --> A              

 **************************************************************************

 **************************************************************************

                    xk=(   0.46250,   0.11250,   0.57500  )

     Band symmetry, C_1 (1)     point group:

     e(  1 -  1) =     -3.18447  eV     1   --> A              
     e(  2 -  2) =      3.38821  eV     1   --> A              
     e(  3 -  3) =      6.95204  eV     1   --> A              
     e(  4 -  4) =     10.36577  eV     1   --> A              
     e(  5 -  5) =     21.86053  eV     1   --> A              
     e(  6 -  6) =     23.47237  eV     1   --> A              
     e(  7 -  7) =     26.18905  eV     1   --> A              
     e(  8 -  8) =     28.27034  eV     1   --> A              

 **************************************************************************

 **************************************************************************

                    xk=(   0.45000,   0.15000,   0.60000  )

     Band symmetry, C_1 (1)     point group:

     e(  1 -  1) =     -2.96051  eV     1   --> A              
     e(  2 -  2) =      2.85621  eV     1   --> A              
     e(  3 -  3) =      7.40098  eV     1   --> A              
     e(  4 -  4) =     10.14637  eV     1   --> A              
     e(  5 -  5) =     22.07329  eV     1   --> A              
     e(  6 -  6) =     23.08737  eV     1   --> A              
     e(  7 -  7) =     26.14095  eV     1   --> A              
     e(  8 -  8) =     28.40291  eV     1   --> A              

 **************************************************************************

 **************************************************************************

                    xk=(   0.43750,   0.18750,   0.62500  )

     Band symmetry, C_1 (1)     point group:

     e(  1 -  1) =     -2.71165  eV     1   --> A              
     e(  2 -  2) =      2.32864  eV     1   --> A              
     e(  3 -  3) =      7.79625  eV     1   --> A              
     e(  4 -  4) =      9.90431  eV     1   --> A              
     e(  5 -  5) =     22.09876  eV     1   --> A              
     e(  6 -  6) =     22.92050  eV     1   --> A              
     e(  7 -  7) =     26.13136  eV     1   --> A              
     e(  8 -  8) =     28.43107  eV     1   --> A              

 **************************************************************************

 **************************************************************************

                    xk=(   0.42500,   0.22500,   0.65000  )

     Band symmetry, C_1 (1)     point group:

     e(  1 -  1) =     -2.44324  eV     1   --> A              
     e(  2 -  2) =      1.86148  eV     1   --> A              
     e(  3 -  3) =      8.11143  eV     1   --> A              
     e(  4 -  4) =      9.70580  eV     1   --> A              
     e(  5 -  5) =     21.78028  eV     1   --> A              
     e(  6 -  6) =     23.16293  eV     1   --> A              
     e(  7 -  7) =     26.06070  eV     1   --> A              
     e(  8 -  8) =     28.44767  eV     1   --> A              

 **************************************************************************

 **************************************************************************

                    xk=(   0.41250,   0.26250,   0.67500  )

     Band symmetry, C_1 (1)     point group:

     e(  1 -  1) =     -2.17254  eV     1   --> A              
     e(  2 -  2) =      1.45315  eV     1   --> A              
     e(  3 -  3) =      8.27098  eV     1   --> A              
     e(  4 -  4) =      9.64117  eV     1   --> A              
     e(  5 -  5) =     21.40299  eV     1   --> A              
     e(  6 -  6) =     23.58255  eV     1   --> A              
     e(  7 -  7) =     25.95722  eV     1   --> A              
     e(  8 -  8) =     28.51524  eV     1   --> A              

 **************************************************************************

 **************************************************************************

                    xk=(   0.40000,   0.30000,   0.70000  )

     Band symmetry, C_1 (1)     point group:

     e(  1 -  1) =     -1.92024  eV     1   --> A              
     e(  2 -  2) =      1.12204  eV     1   --> A              
     e(  3 -  3) =      8.22360  eV     1   --> A              
     e(  4 -  4) =      9.68406  eV     1   --> A              
     e(  5 -  5) =     21.08664  eV     1   --> A              
     e(  6 -  6) =     24.05009  eV     1   --> A              
     e(  7 -  7) =     25.78319  eV     1   --> A              
     e(  8 -  8) =     28.61644  eV     1   --> A              

 **************************************************************************

 **************************************************************************

                    xk=(   0.38750,   0.33750,   0.72500  )

     Band symmetry, C_1 (1)     point group:

     e(  1 -  1) =     -1.71445  eV     1   --> A              
     e(  2 -  2) =      0.91450  eV     1   --> A              
     e(  3 -  3) =      8.03328  eV     1   --> A              
     e(  4 -  4) =      9.76672  eV     1   --> A              
     e(  5 -  5) =     20.88453  eV     1   --> A              
     e(  6 -  6) =     24.50247  eV     1   --> A              
     e(  7 -  7) =     25.57186  eV     1   --> A              
     e(  8 -  8) =     28.79414  eV     1   --> A              

 **************************************************************************

 **************************************************************************

                    xk=(   0.37500,   0.37500,   0.75000  )

     point group C_s (m)    
     there are  2 classes
     the character table:

       E     s    
A'     1.00  1.00
A''    1.00 -1.00

     the symmetry operations in each class and the name of the first element:

     E        1
                                                                 
     s        2
                                                                 

     Band symmetry, C_s (m)     point group:

     e(  1 -  1) =     -1.61159  eV     1   --> A'             
     e(  2 -  2) =      0.87390  eV     1   --> A'             
     e(  3 -  3) =      7.77815  eV     1   --> A'             
     e(  4 -  4) =      9.83625  eV     1   --> A''            
     e(  5 -  5) =     20.82952  eV     1   --> A'             
     e(  6 -  6) =     24.74581  eV     1   --> A''            
     e(  7 -  7) =     25.51379  eV     1   --> A'             
     e(  8 -  8) =     28.99908  eV     1   --> A'             

 **************************************************************************

 **************************************************************************

                    xk=(   0.33750,   0.33750,   0.67500  )

     Band symmetry, C_s (m)     point group:

     e(  1 -  1) =     -2.27507  eV     1   --> A'             
     e(  2 -  2) =      1.33918  eV     1   --> A'             
     e(  3 -  3) =      8.59164  eV     1   --> A'             
     e(  4 -  4) =      9.79786  eV     1   --> A''            
     e(  5 -  5) =     20.76331  eV     1   --> A'             
     e(  6 -  6) =     24.62755  eV     1   --> A''            
     e(  7 -  7) =     25.02788  eV     1   --> A'             
     e(  8 -  8) =     28.30709  eV     1   --> A'             

 **************************************************************************

 **************************************************************************

                    xk=(   0.30000,   0.30000,   0.60000  )

     Band symmetry, C_s (m)     point group:

     e(  1 -  1) =     -3.32613  eV     1   --> A'             
     e(  2 -  2) =      2.51537  eV     1   --> A'             
     e(  3 -  3) =      9.44669  eV     1   --> A'             
     e(  4 -  4) =      9.91094  eV     1   --> A''            
     e(  5 -  5) =     20.79762  eV     1   --> A'             
     e(  6 -  6) =     24.45719  eV     1   --> A''            
     e(  7 -  7) =     24.56123  eV     1   --> A'             
     e(  8 -  8) =     27.76246  eV     1   --> A'             

 **************************************************************************

 **************************************************************************

                    xk=(   0.26250,   0.26250,   0.52500  )

     Band symmetry, C_s (m)     point group:

     e(  1 -  1) =     -4.39967  eV     1   --> A'             
     e(  2 -  2) =      3.90680  eV     1   --> A'             
     e(  3 -  3) =     10.15301  eV     1   --> A''            
     e(  4 -  4) =     10.27435  eV     1   --> A'             
     e(  5 -  5) =     20.79228  eV     1   --> A'             
     e(  6 -  6) =     24.03646  eV     1   --> A'             
     e(  7 -  7) =     24.15078  eV     1   --> A''            
     e(  8 -  8) =     27.36454  eV     1   --> A'             

 **************************************************************************

 **************************************************************************

                    xk=(   0.22500,   0.22500,   0.45000  )

     Band symmetry, C_s (m)     point group:

     e(  1 -  1) =     -5.37456  eV     1   --> A'             
     e(  2 -  2) =      5.45864  eV     1   --> A'             
     e(  3 -  3) =     10.57552  eV     1   --> A''            
     e(  4 -  4) =     11.10691  eV     1   --> A'             
     e(  5 -  5) =     20.66523  eV     1   --> A'             
     e(  6 -  6) =     23.48319  eV     1   --> A'             
     e(  7 -  7) =     23.72405  eV     1   --> A''            
     e(  8 -  8) =     27.26999  eV     1   --> A'             

 **************************************************************************

 **************************************************************************

                    xk=(   0.18750,   0.18750,   0.37500  )

     Band symmetry, C_s (m)     point group:

     e(  1 -  1) =     -6.20316  eV     1   --> A'             
     e(  2 -  2) =      7.11262  eV     1   --> A'             
     e(  3 -  3) =     11.09156  eV     1   --> A''            
     e(  4 -  4) =     11.86175  eV     1   --> A'             
     e(  5 -  5) =     20.50296  eV     1   --> A'             
     e(  6 -  6) =     22.88905  eV     1   --> A'             
     e(  7 -  7) =     23.10729  eV     1   --> A''            
     e(  8 -  8) =     27.35426  eV     1   --> A'             

 **************************************************************************

 **************************************************************************

                    xk=(   0.15000,   0.15000,   0.30000  )

     Band symmetry, C_s (m)     point group:

     e(  1 -  1) =     -6.89823  eV     1   --> A'             
     e(  2 -  2) =      8.82745  eV     1   --> A'             
     e(  3 -  3) =     11.72203  eV     1   --> A''            
     e(  4 -  4) =     12.54680  eV     1   --> A'             
     e(  5 -  5) =     20.26499  eV     1   --> A'             
     e(  6 -  6) =     22.23335  eV     1   --> A'             
     e(  7 -  7) =     22.34869  eV     1   --> A''            
     e(  8 -  8) =     27.40744  eV     1   --> A'             

 **************************************************************************

 **************************************************************************

                    xk=(   0.11250,   0.11250,   0.22500  )

     Band symmetry, C_s (m)     point group:

     e(  1 -  1) =     -7.44473  eV     1   --> A'             
     e(  2 -  2) =     10.52861  eV     1   --> A'             
     e(  3 -  3) =     12.48883  eV     1   --> A''            
     e(  4 -  4) =     13.16775  eV     1   --> A'             
     e(  5 -  5) =     19.98233  eV     1   --> A'             
     e(  6 -  6) =     21.44752  eV     1   --> A''            
     e(  7 -  7) =     21.45948  eV     1   --> A'             
     e(  8 -  8) =     27.32833  eV     1   --> A'             

 **************************************************************************

 **************************************************************************

                    xk=(   0.07500,   0.07500,   0.15000  )

     Band symmetry, C_s (m)     point group:

     e(  1 -  1) =     -7.83682  eV     1   --> A'             
     e(  2 -  2) =     12.12909  eV     1   --> A'             
     e(  3 -  3) =     13.24255  eV     1   --> A''            
     e(  4 -  4) =     13.63166  eV     1   --> A'             
     e(  5 -  5) =     19.69769  eV     1   --> A'             
     e(  6 -  6) =     20.50092  eV     1   --> A''            
     e(  7 -  7) =     20.59368  eV     1   --> A'             
     e(  8 -  8) =     27.11764  eV     1   --> A'             

 **************************************************************************

 **************************************************************************

                    xk=(   0.03750,   0.03750,   0.07500  )

     Band symmetry, C_s (m)     point group:

     e(  1 -  1) =     -8.06259  eV     1   --> A'             
     e(  2 -  2) =     13.51900  eV     1   --> A'             
     e(  3 -  3) =     13.86391  eV     1   --> A''            
     e(  4 -  4) =     14.00482  eV     1   --> A'             
     e(  5 -  5) =     19.54337  eV     1   --> A'             
     e(  6 -  6) =     19.80898  eV     1   --> A''            
     e(  7 -  7) =     19.82368  eV     1   --> A'             
     e(  8 -  8) =     27.01307  eV     1   --> A'             

 **************************************************************************

 **************************************************************************

                    xk=(   0.00000,   0.00000,   0.00000  )

     point group O_h (m-3m) 
     there are 10 classes
     the character table:

       E     8C3   3C2   6C4   6C2'  i     8S6   3s_h  6S4   6s_d 
A_1g   1.00  1.00  1.00  1.00  1.00  1.00  1.00  1.00  1.00  1.00
A_2g   1.00  1.00  1.00 -1.00 -1.00  1.00  1.00  1.00 -1.00 -1.00
E_g    2.00 -1.00  2.00  0.00  0.00  2.00 -1.00  2.00  0.00  0.00
T_1g   3.00  0.00 -1.00  1.00 -1.00  3.00  0.00 -1.00  1.00 -1.00
T_2g   3.00  0.00 -1.00 -1.00  1.00  3.00  0.00 -1.00 -1.00  1.00
A_1u   1.00  1.00  1.00  1.00  1.00 -1.00 -1.00 -1.00 -1.00 -1.00
A_2u   1.00  1.00  1.00 -1.00 -1.00 -1.00 -1.00 -1.00  1.00  1.00
E_u    2.00 -1.00  2.00  0.00  0.00 -2.00  1.00 -2.00  0.00  0.00
T_1u   3.00  0.00 -1.00  1.00 -1.00 -3.00  0.00  1.00 -1.00  1.00
T_2u   3.00  0.00 -1.00 -1.00  1.00 -3.00  0.00  1.00  1.00 -1.00

     the symmetry operations in each class and the name of the first element:

     E        1
                                                                 
     8C3     17   19   20   18   24   21   22   23
                                                                 
     3C2      2    4    3
                                                                 
     6C4      7    8   15   16   12   11
                                                                 
     6C2'     5    6   14   13   10    9
                                                                 
     i       25
                                                                 
     8S6     41   43   44   42   48   45   46   47
                                                                 
     3s_h    26   28   27
                                                                 
     6S4     31   32   39   40   36   35
                                                                 
     6s_d    29   30   38   37   34   33
                                                                 

     Band symmetry, O_h (m-3m)  point group:

     e(  1 -  1) =     -8.12502  eV     1   --> A_1g G_1   G_1+
     e(  2 -  4) =     14.15061  eV     3   --> T_2g G_25' G_5+
     e(  5 -  7) =     19.55041  eV     3   --> T_1u G_15  G_4-
     e(  8 -  8) =     26.99245  eV     1   --> A_2u G_2'  G_2-

 **************************************************************************

 **************************************************************************

                    xk=(   0.05000,   0.05000,   0.05000  )

     point group C_3v (3m)  
     there are  3 classes
     the character table:

       E     2C3   3s_v 
A_1    1.00  1.00  1.00
A_2    1.00  1.00 -1.00
E      2.00 -1.00  0.00

     the symmetry operations in each class and the name of the first element:

     E        1
                                                                 
     2C3      2    3
                                                                 
     3s_v     4    5    6
                                                                 

     Band symmetry, C_3v (3m)   point group:

     e(  1 -  1) =     -8.07125  eV     1   --> A_1  L_1       
     e(  2 -  2) =     13.51279  eV     1   --> A_1  L_1       
     e(  3 -  4) =     13.98017  eV     2   --> E    L_3       
     e(  5 -  6) =     19.68330  eV     2   --> E    L_3       
     e(  7 -  7) =     19.74462  eV     1   --> A_1  L_1       
     e(  8 -  8) =     27.00461  eV     1   --> A_1  L_1       

 **************************************************************************

 **************************************************************************

                    xk=(   0.10000,   0.10000,   0.10000  )

     Band symmetry, C_3v (3m)   point group:

     e(  1 -  1) =     -7.87139  eV     1   --> A_1  L_1       
     e(  2 -  2) =     12.15586  eV     1   --> A_1  L_1       
     e(  3 -  4) =     13.60416  eV     2   --> E    L_3       
     e(  5 -  6) =     20.05452  eV     2   --> E    L_3       
     e(  7 -  7) =     20.39559  eV     1   --> A_1  L_1       
     e(  8 -  8) =     27.14204  eV     1   --> A_1  L_1       

 **************************************************************************

 **************************************************************************

                    xk=(   0.15000,   0.15000,   0.15000  )

     Band symmetry, C_3v (3m)   point group:

     e(  1 -  1) =     -7.52411  eV     1   --> A_1  L_1       
     e(  2 -  2) =     10.51807  eV     1   --> A_1  L_1       
     e(  3 -  4) =     13.08578  eV     2   --> E    L_3       
     e(  5 -  6) =     20.62259  eV     2   --> E    L_3       
     e(  7 -  7) =     21.01740  eV     1   --> A_1  L_1       
     e(  8 -  8) =     27.39677  eV     1   --> A_1  L_1       

 **************************************************************************

 **************************************************************************

                    xk=(   0.20000,   0.20000,   0.20000  )

     Band symmetry, C_3v (3m)   point group:

     e(  1 -  1) =     -7.03702  eV     1   --> A_1  L_1       
     e(  2 -  2) =      8.79213  eV     1   --> A_1  L_1       
     e(  3 -  4) =     12.61744  eV     2   --> E    L_3       
     e(  5 -  6) =     21.21785  eV     2   --> E    L_3       
     e(  7 -  7) =     21.54338  eV     1   --> A_1  L_1       
     e(  8 -  8) =     27.88914  eV     1   --> A_1  L_1       

 **************************************************************************

 **************************************************************************

                    xk=(   0.25000,   0.25000,   0.25000  )

     Band symmetry, C_3v (3m)   point group:

     e(  1 -  1) =     -6.41639  eV     1   --> A_1  L_1       
     e(  2 -  2) =      7.01996  eV     1   --> A_1  L_1       
     e(  3 -  4) =     12.17889  eV     2   --> E    L_3       
     e(  5 -  6) =     21.69867  eV     2   --> E    L_3       
     e(  7 -  7) =     21.84787  eV     1   --> A_1  L_1       
     e(  8 -  8) =     28.43513  eV     1   --> A_1  L_1       

 **************************************************************************

 **************************************************************************

                    xk=(   0.30000,   0.30000,   0.30000  )

     Band symmetry, C_3v (3m)   point group:

     e(  1 -  1) =     -5.66518  eV     1   --> A_1  L_1       
     e(  2 -  2) =      5.27962  eV     1   --> A_1  L_1       
     e(  3 -  4) =     11.79965  eV     2   --> E    L_3       
     e(  5 -  6) =     22.02959  eV     2   --> E    L_3       
     e(  7 -  7) =     22.04113  eV     1   --> A_1  L_1       
     e(  8 -  8) =     28.94131  eV     1   --> A_1  L_1       

 **************************************************************************

 **************************************************************************

                    xk=(   0.35000,   0.35000,   0.35000  )

     Band symmetry, C_3v (3m)   point group:

     e(  1 -  1) =     -4.79409  eV     1   --> A_1  L_1       
     e(  2 -  2) =      3.61604  eV     1   --> A_1  L_1       
     e(  3 -  4) =     11.49547  eV     2   --> E    L_3       
     e(  5 -  5) =     22.16385  eV     1   --> A_1  L_1       
     e(  6 -  7) =     22.21312  eV     2   --> E    L_3       
     e(  8 -  8) =     29.32473  eV     1   --> A_1  L_1       

 **************************************************************************

 **************************************************************************

                    xk=(   0.40000,   0.40000,   0.40000  )

     Band symmetry, C_3v (3m)   point group:

     e(  1 -  1) =     -3.87088  eV     1   --> A_1  L_1       
     e(  2 -  2) =      2.08394  eV     1   --> A_1  L_1       
     e(  3 -  4) =     11.26647  eV     2   --> E    L_3       
     e(  5 -  5) =     22.24230  eV     1   --> A_1  L_1       
     e(  6 -  7) =     22.24368  eV     2   --> E    L_3       
     e(  8 -  8) =     29.55210  eV     1   --> A_1  L_1       

 **************************************************************************

 **************************************************************************

                    xk=(   0.45000,   0.45000,   0.45000  )

     Band symmetry, C_3v (3m)   point group:

     e(  1 -  1) =     -2.91797  eV     1   --> A_1  L_1       
     e(  2 -  2) =      0.74557  eV     1   --> A_1  L_1       
     e(  3 -  4) =     11.13243  eV     2   --> E    L_3       
     e(  5 -  6) =     22.25922  eV     2   --> E    L_3       
     e(  7 -  7) =     22.27850  eV     1   --> A_1  L_1       
     e(  8 -  8) =     29.62640  eV     1   --> A_1  L_1       

 **************************************************************************

 **************************************************************************

                    xk=(   0.50000,   0.50000,   0.50000  )

     zone border point and non-symmorphic group 
     symmetry decomposition not available

 **************************************************************************

 **************************************************************************

                    xk=(   0.47500,   0.47500,   0.47500  )

     point group C_3v (3m)  
     there are  3 classes
     the character table:

       E     2C3   3s_v 
A_1    1.00  1.00  1.00
A_2    1.00  1.00 -1.00
E      2.00 -1.00  0.00

     the symmetry operations in each class and the name of the first element:

     E        1
                                                                 
     2C3      2    3
                                                                 
     3s_v     4    5    6
                                                                 

     Band symmetry, C_3v (3m)   point group:

     e(  1 -  1) =     -2.53668  eV     1   --> A_1  L_1       
     e(  2 -  2) =      0.27459  eV     1   --> A_1  L_1       
     e(  3 -  4) =     11.09927  eV     2   --> E    L_3       
     e(  5 -  6) =     22.26093  eV     2   --> E    L_3       
     e(  7 -  7) =     22.29296  eV     1   --> A_1  L_1       
     e(  8 -  8) =     29.64651  eV     1   --> A_1  L_1       

 **************************************************************************

 **************************************************************************

                    xk=(   0.45000,   0.45000,   0.45000  )

     Band symmetry, C_3v (3m)   point group:

     e(  1 -  1) =     -2.91797  eV     1   --> A_1  L_1       
     e(  2 -  2) =      0.74557  eV     1   --> A_1  L_1       
     e(  3 -  4) =     11.13243  eV     2   --> E    L_3       
     e(  5 -  6) =     22.25922  eV     2   --> E    L_3       
     e(  7 -  7) =     22.27850  eV     1   --> A_1  L_1       
     e(  8 -  8) =     29.62640  eV     1   --> A_1  L_1       

 **************************************************************************

 **************************************************************************

                    xk=(   0.42500,   0.42500,   0.42500  )

     Band symmetry, C_3v (3m)   point group:

     e(  1 -  1) =     -3.38794  eV     1   --> A_1  L_1       
     e(  2 -  2) =      1.36438  eV     1   --> A_1  L_1       
     e(  3 -  4) =     11.18807  eV     2   --> E    L_3       
     e(  5 -  6) =     22.25354  eV     2   --> E    L_3       
     e(  7 -  7) =     22.25829  eV     1   --> A_1  L_1       
     e(  8 -  8) =     29.58685  eV     1   --> A_1  L_1       

 **************************************************************************

 **************************************************************************

                    xk=(   0.40000,   0.40000,   0.40000  )

     Band symmetry, C_3v (3m)   point group:

     e(  1 -  1) =     -3.87088  eV     1   --> A_1  L_1       
     e(  2 -  2) =      2.08394  eV     1   --> A_1  L_1       
     e(  3 -  4) =     11.26647  eV     2   --> E    L_3       
     e(  5 -  5) =     22.24230  eV     1   --> A_1  L_1       
     e(  6 -  7) =     22.24368  eV     2   --> E    L_3       
     e(  8 -  8) =     29.55210  eV     1   --> A_1  L_1       

 **************************************************************************

 **************************************************************************

                    xk=(   0.37500,   0.37500,   0.37500  )

     Band symmetry, C_3v (3m)   point group:

     e(  1 -  1) =     -4.35893  eV     1   --> A_1  L_1       
     e(  2 -  2) =      2.81579  eV     1   --> A_1  L_1       
     e(  3 -  4) =     11.36638  eV     2   --> E    L_3       
     e(  5 -  5) =     22.20620  eV     1   --> A_1  L_1       
     e(  6 -  7) =     22.21632  eV     2   --> E    L_3       
     e(  8 -  8) =     29.45024  eV     1   --> A_1  L_1       

 **************************************************************************

 **************************************************************************

                    xk=(   0.35000,   0.35000,   0.35000  )

     Band symmetry, C_3v (3m)   point group:

     e(  1 -  1) =     -4.79409  eV     1   --> A_1  L_1       
     e(  2 -  2) =      3.61604  eV     1   --> A_1  L_1       
     e(  3 -  4) =     11.49547  eV     2   --> E    L_3       
     e(  5 -  5) =     22.16385  eV     1   --> A_1  L_1       
     e(  6 -  7) =     22.21312  eV     2   --> E    L_3       
     e(  8 -  8) =     29.32473  eV     1   --> A_1  L_1       

 **************************************************************************

 **************************************************************************

                    xk=(   0.32500,   0.32500,   0.32500  )

     Band symmetry, C_3v (3m)   point group:

     e(  1 -  1) =     -5.24356  eV     1   --> A_1  L_1       
     e(  2 -  2) =      4.43562  eV     1   --> A_1  L_1       
     e(  3 -  4) =     11.63753  eV     2   --> E    L_3       
     e(  5 -  5) =     22.10929  eV     1   --> A_1  L_1       
     e(  6 -  7) =     22.13773  eV     2   --> E    L_3       
     e(  8 -  8) =     29.15199  eV     1   --> A_1  L_1       

 **************************************************************************

 **************************************************************************

                    xk=(   0.30000,   0.30000,   0.30000  )

     Band symmetry, C_3v (3m)   point group:

     e(  1 -  1) =     -5.66518  eV     1   --> A_1  L_1       
     e(  2 -  2) =      5.27962  eV     1   --> A_1  L_1       
     e(  3 -  4) =     11.79965  eV     2   --> E    L_3       
     e(  5 -  6) =     22.02959  eV     2   --> E    L_3       
     e(  7 -  7) =     22.04113  eV     1   --> A_1  L_1       
     e(  8 -  8) =     28.94131  eV     1   --> A_1  L_1       

 **************************************************************************

 **************************************************************************

                    xk=(   0.27500,   0.27500,   0.27500  )

     Band symmetry, C_3v (3m)   point group:

     e(  1 -  1) =     -6.05662  eV     1   --> A_1  L_1       
     e(  2 -  2) =      6.14280  eV     1   --> A_1  L_1       
     e(  3 -  4) =     11.98065  eV     2   --> E    L_3       
     e(  5 -  6) =     21.88395  eV     2   --> E    L_3       
     e(  7 -  7) =     21.95557  eV     1   --> A_1  L_1       
     e(  8 -  8) =     28.69909  eV     1   --> A_1  L_1       

 **************************************************************************

 **************************************************************************

                    xk=(   0.25000,   0.25000,   0.25000  )

     Band symmetry, C_3v (3m)   point group:

     e(  1 -  1) =     -6.41639  eV     1   --> A_1  L_1       
     e(  2 -  2) =      7.01996  eV     1   --> A_1  L_1       
     e(  3 -  4) =     12.17889  eV     2   --> E    L_3       
     e(  5 -  6) =     21.69867  eV     2   --> E    L_3       
     e(  7 -  7) =     21.84787  eV     1   --> A_1  L_1       
     e(  8 -  8) =     28.43513  eV     1   --> A_1  L_1       

 **************************************************************************

     BANDS        :      0.36s CPU      0.44s WALL


   This run was terminated on:  23:55:44   5Oct2024            

=------------------------------------------------------------------------------=
   JOB DONE.
=------------------------------------------------------------------------------=
