
     Program PWSCF v.7.3.1 starts on  5Oct2024 at 23:55:41 

     This program is part of the open-source Quantum ESPRESSO suite
     for quantum simulation of materials; please cite
         "P. Giannozzi et al., J. Phys.:Condens. Matter 21 395502 (2009);
         "P. Giannozzi et al., J. Phys.:Condens. Matter 29 465901 (2017);
         "P. Giannozzi et al., J. Chem. Phys. 152 154105 (2020);
          URL http://www.quantum-espresso.org", 
     in publications or presentations arising from this work. More details at
     http://www.quantum-espresso.org/quote

     Parallel version (MPI & OpenMP), running on       2 processor cores
     Number of MPI processes:                 2
     Threads/MPI process:                     1

     MPI processes distributed on     1 nodes
     508824 MiB available memory on the printing compute node when the environment starts

     Waiting for input...
     Reading input from standard input
Warning: card &IONS ignored
Warning: card / ignored

     Current dimensions of program PWSCF are:
     Max number of different atomic species (ntypx) = 10
     Max number of k-points (npk) =  40000
     Max angular momentum in pseudopotentials (lmaxx) =  4

     Atomic positions and unit cell read from directory:
     ./diamond.save/

     Message from routine setup:
     no reason to have ecutrho>4*ecutwfc

     R & G space division:  proc/nbgrp/npool/nimage =       2
     Subspace diagonalization in iterative solution of the eigenvalue problem:
     a serial algorithm will be used


     Parallelization info
     --------------------
     sticks:   dense  smooth     PW     G-vecs:    dense   smooth      PW
     Min         156      93     30                 1847      843     165
     Max         157      94     31                 1848      844     166
     Sum         313     187     61                 3695     1687     331

     Using Slab Decomposition



     bravais-lattice index     =            2
     lattice parameter (alat)  =       6.7370  a.u.
     unit-cell volume          =      76.4433 (a.u.)^3
     number of atoms/cell      =            2
     number of atomic types    =            1
     number of electrons       =         8.00
     number of Kohn-Sham states=            8
     kinetic-energy cutoff     =      30.0000  Ry
     charge density cutoff     =     200.0000  Ry
     Exchange-correlation= PBE
                           (   1   4   3   4   0   0   0)

     celldm(1)=   6.737000  celldm(2)=   0.000000  celldm(3)=   0.000000
     celldm(4)=   0.000000  celldm(5)=   0.000000  celldm(6)=   0.000000

     crystal axes: (cart. coord. in units of alat)
               a(1) = (  -0.500000   0.000000   0.500000 )  
               a(2) = (   0.000000   0.500000   0.500000 )  
               a(3) = (  -0.500000   0.500000   0.000000 )  

     reciprocal axes: (cart. coord. in units 2 pi/alat)
               b(1) = ( -1.000000 -1.000000  1.000000 )  
               b(2) = (  1.000000  1.000000  1.000000 )  
               b(3) = ( -1.000000  1.000000 -1.000000 )  


     PseudoPot. # 1 for C  read from file:
     ./C_ONCV_PBE-1.0.upf
     MD5 check sum: 40f8c33130f0afa4272e9dcc1c4fb0df
     Pseudo is Norm-conserving, Zval =  4.0
     Generated using ONCVPSP code by D. R. Hamann
     Using radial grid of  602 points,  4 beta functions with: 
                l(1) =   0
                l(2) =   0
                l(3) =   1
                l(4) =   1

     atomic species   valence    mass     pseudopotential
     C                 4.00    12.00000     C ( 1.00)

     48 Sym. Ops., with inversion, found (24 have fractional translation)


                                    s                        frac. trans.

      isym =  1     identity                                     

 cryst.   s( 1) = (     1          0          0      )
                  (     0          1          0      )
                  (     0          0          1      )

 cart.    s( 1) = (  1.0000000  0.0000000  0.0000000 )
                  (  0.0000000  1.0000000  0.0000000 )
                  (  0.0000000  0.0000000  1.0000000 )


      isym =  2     180 deg rotation - cart. axis [0,0,1]        

 cryst.   s( 2) = (     0          1         -1      )
                  (     1          0         -1      )
                  (     0          0         -1      )

 cart.    s( 2) = ( -1.0000000  0.0000000  0.0000000 )
                  (  0.0000000 -1.0000000  0.0000000 )
                  (  0.0000000  0.0000000  1.0000000 )


      isym =  3     180 deg rotation - cart. axis [0,1,0]        

 cryst.   s( 3) = (    -1          0          0      )
                  (    -1          0          1      )
                  (    -1          1          0      )

 cart.    s( 3) = ( -1.0000000  0.0000000  0.0000000 )
                  (  0.0000000  1.0000000  0.0000000 )
                  (  0.0000000  0.0000000 -1.0000000 )


      isym =  4     180 deg rotation - cart. axis [1,0,0]        

 cryst.   s( 4) = (     0         -1          1      )
                  (     0         -1          0      )
                  (     1         -1          0      )

 cart.    s( 4) = (  1.0000000  0.0000000  0.0000000 )
                  (  0.0000000 -1.0000000  0.0000000 )
                  (  0.0000000  0.0000000 -1.0000000 )


      isym =  5     180 deg rotation - cart. axis [1,1,0]        

 cryst.   s( 5) = (     0         -1          0      )    f =(  0.2500000 )
                  (    -1          0          0      )       (  0.2500000 )
                  (     0          0         -1      )       (  0.2500000 )

 cart.    s( 5) = (  0.0000000  1.0000000  0.0000000 )    f =( -0.2500000 )
                  (  1.0000000  0.0000000  0.0000000 )       (  0.2500000 )
                  (  0.0000000  0.0000000 -1.0000000 )       (  0.2500000 )


      isym =  6     180 deg rotation - cart. axis [1,-1,0]       

 cryst.   s( 6) = (    -1          0          1      )    f =(  0.2500000 )
                  (     0         -1          1      )       (  0.2500000 )
                  (     0          0          1      )       (  0.2500000 )

 cart.    s( 6) = (  0.0000000 -1.0000000  0.0000000 )    f =( -0.2500000 )
                  ( -1.0000000  0.0000000  0.0000000 )       (  0.2500000 )
                  (  0.0000000  0.0000000 -1.0000000 )       (  0.2500000 )


      isym =  7      90 deg rotation - cart. axis [0,0,-1]       

 cryst.   s( 7) = (     0          1          0      )    f =(  0.2500000 )
                  (     0          1         -1      )       (  0.2500000 )
                  (    -1          1          0      )       (  0.2500000 )

 cart.    s( 7) = (  0.0000000  1.0000000  0.0000000 )    f =( -0.2500000 )
                  ( -1.0000000  0.0000000  0.0000000 )       (  0.2500000 )
                  (  0.0000000  0.0000000  1.0000000 )       (  0.2500000 )


      isym =  8      90 deg rotation - cart. axis [0,0,1]        

 cryst.   s( 8) = (     1          0         -1      )    f =(  0.2500000 )
                  (     1          0          0      )       (  0.2500000 )
                  (     1         -1          0      )       (  0.2500000 )

 cart.    s( 8) = (  0.0000000 -1.0000000  0.0000000 )    f =( -0.2500000 )
                  (  1.0000000  0.0000000  0.0000000 )       (  0.2500000 )
                  (  0.0000000  0.0000000  1.0000000 )       (  0.2500000 )


      isym =  9     180 deg rotation - cart. axis [1,0,1]        

 cryst.   s( 9) = (    -1          0          0      )    f =(  0.2500000 )
                  (     0          0         -1      )       (  0.2500000 )
                  (     0         -1          0      )       (  0.2500000 )

 cart.    s( 9) = (  0.0000000  0.0000000  1.0000000 )    f =( -0.2500000 )
                  (  0.0000000 -1.0000000  0.0000000 )       (  0.2500000 )
                  (  1.0000000  0.0000000  0.0000000 )       (  0.2500000 )


      isym = 10     180 deg rotation - cart. axis [-1,0,1]       

 cryst.   s(10) = (     1          0          0      )    f =(  0.2500000 )
                  (     1         -1          0      )       (  0.2500000 )
                  (     1          0         -1      )       (  0.2500000 )

 cart.    s(10) = (  0.0000000  0.0000000 -1.0000000 )    f =( -0.2500000 )
                  (  0.0000000 -1.0000000  0.0000000 )       (  0.2500000 )
                  ( -1.0000000  0.0000000  0.0000000 )       (  0.2500000 )


      isym = 11      90 deg rotation - cart. axis [0,1,0]        

 cryst.   s(11) = (     0          1         -1      )    f =(  0.2500000 )
                  (    -1          1          0      )       (  0.2500000 )
                  (     0          1          0      )       (  0.2500000 )

 cart.    s(11) = (  0.0000000  0.0000000  1.0000000 )    f =( -0.2500000 )
                  (  0.0000000  1.0000000  0.0000000 )       (  0.2500000 )
                  ( -1.0000000  0.0000000  0.0000000 )       (  0.2500000 )


      isym = 12      90 deg rotation - cart. axis [0,-1,0]       

 cryst.   s(12) = (     0         -1          1      )    f =(  0.2500000 )
                  (     0          0          1      )       (  0.2500000 )
                  (    -1          0          1      )       (  0.2500000 )

 cart.    s(12) = (  0.0000000  0.0000000 -1.0000000 )    f =( -0.2500000 )
                  (  0.0000000  1.0000000  0.0000000 )       (  0.2500000 )
                  (  1.0000000  0.0000000  0.0000000 )       (  0.2500000 )


      isym = 13     180 deg rotation - cart. axis [0,1,1]        

 cryst.   s(13) = (    -1          1          0      )    f =(  0.2500000 )
                  (     0          1          0      )       (  0.2500000 )
                  (     0          1         -1      )       (  0.2500000 )

 cart.    s(13) = ( -1.0000000  0.0000000  0.0000000 )    f =( -0.2500000 )
                  (  0.0000000  0.0000000  1.0000000 )       (  0.2500000 )
                  (  0.0000000  1.0000000  0.0000000 )       (  0.2500000 )


      isym = 14     180 deg rotation - cart. axis [0,1,-1]       

 cryst.   s(14) = (     0          0         -1      )    f =(  0.2500000 )
                  (     0         -1          0      )       (  0.2500000 )
                  (    -1          0          0      )       (  0.2500000 )

 cart.    s(14) = ( -1.0000000  0.0000000  0.0000000 )    f =( -0.2500000 )
                  (  0.0000000  0.0000000 -1.0000000 )       (  0.2500000 )
                  (  0.0000000 -1.0000000  0.0000000 )       (  0.2500000 )


      isym = 15      90 deg rotation - cart. axis [-1,0,0]       

 cryst.   s(15) = (     0          0          1      )    f =(  0.2500000 )
                  (    -1          0          1      )       (  0.2500000 )
                  (     0         -1          1      )       (  0.2500000 )

 cart.    s(15) = (  1.0000000  0.0000000  0.0000000 )    f =( -0.2500000 )
                  (  0.0000000  0.0000000  1.0000000 )       (  0.2500000 )
                  (  0.0000000 -1.0000000  0.0000000 )       (  0.2500000 )


      isym = 16      90 deg rotation - cart. axis [1,0,0]        

 cryst.   s(16) = (     1         -1          0      )    f =(  0.2500000 )
                  (     1          0         -1      )       (  0.2500000 )
                  (     1          0          0      )       (  0.2500000 )

 cart.    s(16) = (  1.0000000  0.0000000  0.0000000 )    f =( -0.2500000 )
                  (  0.0000000  0.0000000 -1.0000000 )       (  0.2500000 )
                  (  0.0000000  1.0000000  0.0000000 )       (  0.2500000 )


      isym = 17     120 deg rotation - cart. axis [-1,-1,-1]     

 cryst.   s(17) = (    -1          0          1      )
                  (    -1          1          0      )
                  (    -1          0          0      )

 cart.    s(17) = (  0.0000000  1.0000000  0.0000000 )
                  (  0.0000000  0.0000000  1.0000000 )
                  (  1.0000000  0.0000000  0.0000000 )


      isym = 18     120 deg rotation - cart. axis [-1,1,1]       

 cryst.   s(18) = (     0          1          0      )
                  (     0          0          1      )
                  (     1          0          0      )

 cart.    s(18) = (  0.0000000 -1.0000000  0.0000000 )
                  (  0.0000000  0.0000000  1.0000000 )
                  ( -1.0000000  0.0000000  0.0000000 )


      isym = 19     120 deg rotation - cart. axis [1,1,-1]       

 cryst.   s(19) = (     1          0         -1      )
                  (     0          0         -1      )
                  (     0          1         -1      )

 cart.    s(19) = (  0.0000000  1.0000000  0.0000000 )
                  (  0.0000000  0.0000000 -1.0000000 )
                  ( -1.0000000  0.0000000  0.0000000 )


      isym = 20     120 deg rotation - cart. axis [1,-1,1]       

 cryst.   s(20) = (     0         -1          0      )
                  (     1         -1          0      )
                  (     0         -1          1      )

 cart.    s(20) = (  0.0000000 -1.0000000  0.0000000 )
                  (  0.0000000  0.0000000 -1.0000000 )
                  (  1.0000000  0.0000000  0.0000000 )


      isym = 21     120 deg rotation - cart. axis [1,1,1]        

 cryst.   s(21) = (     0          0         -1      )
                  (     0          1         -1      )
                  (     1          0         -1      )

 cart.    s(21) = (  0.0000000  0.0000000  1.0000000 )
                  (  1.0000000  0.0000000  0.0000000 )
                  (  0.0000000  1.0000000  0.0000000 )


      isym = 22     120 deg rotation - cart. axis [-1,1,-1]      

 cryst.   s(22) = (    -1          1          0      )
                  (    -1          0          0      )
                  (    -1          0          1      )

 cart.    s(22) = (  0.0000000  0.0000000  1.0000000 )
                  ( -1.0000000  0.0000000  0.0000000 )
                  (  0.0000000 -1.0000000  0.0000000 )


      isym = 23     120 deg rotation - cart. axis [1,-1,-1]      

 cryst.   s(23) = (     0          0          1      )
                  (     1          0          0      )
                  (     0          1          0      )

 cart.    s(23) = (  0.0000000  0.0000000 -1.0000000 )
                  ( -1.0000000  0.0000000  0.0000000 )
                  (  0.0000000  1.0000000  0.0000000 )


      isym = 24     120 deg rotation - cart. axis [-1,-1,1]      

 cryst.   s(24) = (     1         -1          0      )
                  (     0         -1          1      )
                  (     0         -1          0      )

 cart.    s(24) = (  0.0000000  0.0000000 -1.0000000 )
                  (  1.0000000  0.0000000  0.0000000 )
                  (  0.0000000 -1.0000000  0.0000000 )


      isym = 25     inversion                                    

 cryst.   s(25) = (    -1          0          0      )    f =(  0.2500000 )
                  (     0         -1          0      )       (  0.2500000 )
                  (     0          0         -1      )       (  0.2500000 )

 cart.    s(25) = ( -1.0000000  0.0000000  0.0000000 )    f =( -0.2500000 )
                  (  0.0000000 -1.0000000  0.0000000 )       (  0.2500000 )
                  (  0.0000000  0.0000000 -1.0000000 )       (  0.2500000 )


      isym = 26     inv. 180 deg rotation - cart. axis [0,0,1]   

 cryst.   s(26) = (     0         -1          1      )    f =(  0.2500000 )
                  (    -1          0          1      )       (  0.2500000 )
                  (     0          0          1      )       (  0.2500000 )

 cart.    s(26) = (  1.0000000  0.0000000  0.0000000 )    f =( -0.2500000 )
                  (  0.0000000  1.0000000  0.0000000 )       (  0.2500000 )
                  (  0.0000000  0.0000000 -1.0000000 )       (  0.2500000 )


      isym = 27     inv. 180 deg rotation - cart. axis [0,1,0]   

 cryst.   s(27) = (     1          0          0      )    f =(  0.2500000 )
                  (     1          0         -1      )       (  0.2500000 )
                  (     1         -1          0      )       (  0.2500000 )

 cart.    s(27) = (  1.0000000  0.0000000  0.0000000 )    f =( -0.2500000 )
                  (  0.0000000 -1.0000000  0.0000000 )       (  0.2500000 )
                  (  0.0000000  0.0000000  1.0000000 )       (  0.2500000 )


      isym = 28     inv. 180 deg rotation - cart. axis [1,0,0]   

 cryst.   s(28) = (     0          1         -1      )    f =(  0.2500000 )
                  (     0          1          0      )       (  0.2500000 )
                  (    -1          1          0      )       (  0.2500000 )

 cart.    s(28) = ( -1.0000000  0.0000000  0.0000000 )    f =( -0.2500000 )
                  (  0.0000000  1.0000000  0.0000000 )       (  0.2500000 )
                  (  0.0000000  0.0000000  1.0000000 )       (  0.2500000 )


      isym = 29     inv. 180 deg rotation - cart. axis [1,1,0]   

 cryst.   s(29) = (     0          1          0      )
                  (     1          0          0      )
                  (     0          0          1      )

 cart.    s(29) = (  0.0000000 -1.0000000  0.0000000 )
                  ( -1.0000000  0.0000000  0.0000000 )
                  (  0.0000000  0.0000000  1.0000000 )


      isym = 30     inv. 180 deg rotation - cart. axis [1,-1,0]  

 cryst.   s(30) = (     1          0         -1      )
                  (     0          1         -1      )
                  (     0          0         -1      )

 cart.    s(30) = (  0.0000000  1.0000000  0.0000000 )
                  (  1.0000000  0.0000000  0.0000000 )
                  (  0.0000000  0.0000000  1.0000000 )


      isym = 31     inv.  90 deg rotation - cart. axis [0,0,-1]  

 cryst.   s(31) = (     0         -1          0      )
                  (     0         -1          1      )
                  (     1         -1          0      )

 cart.    s(31) = (  0.0000000 -1.0000000  0.0000000 )
                  (  1.0000000  0.0000000  0.0000000 )
                  (  0.0000000  0.0000000 -1.0000000 )


      isym = 32     inv.  90 deg rotation - cart. axis [0,0,1]   

 cryst.   s(32) = (    -1          0          1      )
                  (    -1          0          0      )
                  (    -1          1          0      )

 cart.    s(32) = (  0.0000000  1.0000000  0.0000000 )
                  ( -1.0000000  0.0000000  0.0000000 )
                  (  0.0000000  0.0000000 -1.0000000 )


      isym = 33     inv. 180 deg rotation - cart. axis [1,0,1]   

 cryst.   s(33) = (     1          0          0      )
                  (     0          0          1      )
                  (     0          1          0      )

 cart.    s(33) = (  0.0000000  0.0000000 -1.0000000 )
                  (  0.0000000  1.0000000  0.0000000 )
                  ( -1.0000000  0.0000000  0.0000000 )


      isym = 34     inv. 180 deg rotation - cart. axis [-1,0,1]  

 cryst.   s(34) = (    -1          0          0      )
                  (    -1          1          0      )
                  (    -1          0          1      )

 cart.    s(34) = (  0.0000000  0.0000000  1.0000000 )
                  (  0.0000000  1.0000000  0.0000000 )
                  (  1.0000000  0.0000000  0.0000000 )


      isym = 35     inv.  90 deg rotation - cart. axis [0,1,0]   

 cryst.   s(35) = (     0         -1          1      )
                  (     1         -1          0      )
                  (     0         -1          0      )

 cart.    s(35) = (  0.0000000  0.0000000 -1.0000000 )
                  (  0.0000000 -1.0000000  0.0000000 )
                  (  1.0000000  0.0000000  0.0000000 )


      isym = 36     inv.  90 deg rotation - cart. axis [0,-1,0]  

 cryst.   s(36) = (     0          1         -1      )
                  (     0          0         -1      )
                  (     1          0         -1      )

 cart.    s(36) = (  0.0000000  0.0000000  1.0000000 )
                  (  0.0000000 -1.0000000  0.0000000 )
                  ( -1.0000000  0.0000000  0.0000000 )


      isym = 37     inv. 180 deg rotation - cart. axis [0,1,1]   

 cryst.   s(37) = (     1         -1          0      )
                  (     0         -1          0      )
                  (     0         -1          1      )

 cart.    s(37) = (  1.0000000  0.0000000  0.0000000 )
                  (  0.0000000  0.0000000 -1.0000000 )
                  (  0.0000000 -1.0000000  0.0000000 )


      isym = 38     inv. 180 deg rotation - cart. axis [0,1,-1]  

 cryst.   s(38) = (     0          0          1      )
                  (     0          1          0      )
                  (     1          0          0      )

 cart.    s(38) = (  1.0000000  0.0000000  0.0000000 )
                  (  0.0000000  0.0000000  1.0000000 )
                  (  0.0000000  1.0000000  0.0000000 )


      isym = 39     inv.  90 deg rotation - cart. axis [-1,0,0]  

 cryst.   s(39) = (     0          0         -1      )
                  (     1          0         -1      )
                  (     0          1         -1      )

 cart.    s(39) = ( -1.0000000  0.0000000  0.0000000 )
                  (  0.0000000  0.0000000 -1.0000000 )
                  (  0.0000000  1.0000000  0.0000000 )


      isym = 40     inv.  90 deg rotation - cart. axis [1,0,0]   

 cryst.   s(40) = (    -1          1          0      )
                  (    -1          0          1      )
                  (    -1          0          0      )

 cart.    s(40) = ( -1.0000000  0.0000000  0.0000000 )
                  (  0.0000000  0.0000000  1.0000000 )
                  (  0.0000000 -1.0000000  0.0000000 )


      isym = 41     inv. 120 deg rotation - cart. axis [-1,-1,-1]

 cryst.   s(41) = (     1          0         -1      )    f =(  0.2500000 )
                  (     1         -1          0      )       (  0.2500000 )
                  (     1          0          0      )       (  0.2500000 )

 cart.    s(41) = (  0.0000000 -1.0000000  0.0000000 )    f =( -0.2500000 )
                  (  0.0000000  0.0000000 -1.0000000 )       (  0.2500000 )
                  ( -1.0000000  0.0000000  0.0000000 )       (  0.2500000 )


      isym = 42     inv. 120 deg rotation - cart. axis [-1,1,1]  

 cryst.   s(42) = (     0         -1          0      )    f =(  0.2500000 )
                  (     0          0         -1      )       (  0.2500000 )
                  (    -1          0          0      )       (  0.2500000 )

 cart.    s(42) = (  0.0000000  1.0000000  0.0000000 )    f =( -0.2500000 )
                  (  0.0000000  0.0000000 -1.0000000 )       (  0.2500000 )
                  (  1.0000000  0.0000000  0.0000000 )       (  0.2500000 )


      isym = 43     inv. 120 deg rotation - cart. axis [1,1,-1]  

 cryst.   s(43) = (    -1          0          1      )    f =(  0.2500000 )
                  (     0          0          1      )       (  0.2500000 )
                  (     0         -1          1      )       (  0.2500000 )

 cart.    s(43) = (  0.0000000 -1.0000000  0.0000000 )    f =( -0.2500000 )
                  (  0.0000000  0.0000000  1.0000000 )       (  0.2500000 )
                  (  1.0000000  0.0000000  0.0000000 )       (  0.2500000 )


      isym = 44     inv. 120 deg rotation - cart. axis [1,-1,1]  

 cryst.   s(44) = (     0          1          0      )    f =(  0.2500000 )
                  (    -1          1          0      )       (  0.2500000 )
                  (     0          1         -1      )       (  0.2500000 )

 cart.    s(44) = (  0.0000000  1.0000000  0.0000000 )    f =( -0.2500000 )
                  (  0.0000000  0.0000000  1.0000000 )       (  0.2500000 )
                  ( -1.0000000  0.0000000  0.0000000 )       (  0.2500000 )


      isym = 45     inv. 120 deg rotation - cart. axis [1,1,1]   

 cryst.   s(45) = (     0          0          1      )    f =(  0.2500000 )
                  (     0         -1          1      )       (  0.2500000 )
                  (    -1          0          1      )       (  0.2500000 )

 cart.    s(45) = (  0.0000000  0.0000000 -1.0000000 )    f =( -0.2500000 )
                  ( -1.0000000  0.0000000  0.0000000 )       (  0.2500000 )
                  (  0.0000000 -1.0000000  0.0000000 )       (  0.2500000 )


      isym = 46     inv. 120 deg rotation - cart. axis [-1,1,-1] 

 cryst.   s(46) = (     1         -1          0      )    f =(  0.2500000 )
                  (     1          0          0      )       (  0.2500000 )
                  (     1          0         -1      )       (  0.2500000 )

 cart.    s(46) = (  0.0000000  0.0000000 -1.0000000 )    f =( -0.2500000 )
                  (  1.0000000  0.0000000  0.0000000 )       (  0.2500000 )
                  (  0.0000000  1.0000000  0.0000000 )       (  0.2500000 )


      isym = 47     inv. 120 deg rotation - cart. axis [1,-1,-1] 

 cryst.   s(47) = (     0          0         -1      )    f =(  0.2500000 )
                  (    -1          0          0      )       (  0.2500000 )
                  (     0         -1          0      )       (  0.2500000 )

 cart.    s(47) = (  0.0000000  0.0000000  1.0000000 )    f =( -0.2500000 )
                  (  1.0000000  0.0000000  0.0000000 )       (  0.2500000 )
                  (  0.0000000 -1.0000000  0.0000000 )       (  0.2500000 )


      isym = 48     inv. 120 deg rotation - cart. axis [-1,-1,1] 

 cryst.   s(48) = (    -1          1          0      )    f =(  0.2500000 )
                  (     0          1         -1      )       (  0.2500000 )
                  (     0          1          0      )       (  0.2500000 )

 cart.    s(48) = (  0.0000000  0.0000000  1.0000000 )    f =( -0.2500000 )
                  ( -1.0000000  0.0000000  0.0000000 )       (  0.2500000 )
                  (  0.0000000  1.0000000  0.0000000 )       (  0.2500000 )


     point group O_h (m-3m) 
     there are 10 classes
     the character table:

       E     8C3   3C2   6C4   6C2'  i     8S6   3s_h  6S4   6s_d 
A_1g   1.00  1.00  1.00  1.00  1.00  1.00  1.00  1.00  1.00  1.00
A_2g   1.00  1.00  1.00 -1.00 -1.00  1.00  1.00  1.00 -1.00 -1.00
E_g    2.00 -1.00  2.00  0.00  0.00  2.00 -1.00  2.00  0.00  0.00
T_1g   3.00  0.00 -1.00  1.00 -1.00  3.00  0.00 -1.00  1.00 -1.00
T_2g   3.00  0.00 -1.00 -1.00  1.00  3.00  0.00 -1.00 -1.00  1.00
A_1u   1.00  1.00  1.00  1.00  1.00 -1.00 -1.00 -1.00 -1.00 -1.00
A_2u   1.00  1.00  1.00 -1.00 -1.00 -1.00 -1.00 -1.00  1.00  1.00
E_u    2.00 -1.00  2.00  0.00  0.00 -2.00  1.00 -2.00  0.00  0.00
T_1u   3.00  0.00 -1.00  1.00 -1.00 -3.00  0.00  1.00 -1.00  1.00
T_2u   3.00  0.00 -1.00 -1.00  1.00 -3.00  0.00  1.00  1.00 -1.00

     the symmetry operations in each class and the name of the first element:

     E        1
          identity                                               
     8C3     17   19   20   18   24   21   22   23
          120 deg rotation - cart. axis [-1,-1,-1]               
     3C2      2    4    3
          180 deg rotation - cart. axis [0,0,1]                  
     6C4      7    8   15   16   12   11
           90 deg rotation - cart. axis [0,0,-1]                 
     6C2'     5    6   14   13   10    9
          180 deg rotation - cart. axis [1,1,0]                  
     i       25
          inversion                                              
     8S6     41   43   44   42   48   45   46   47
          inv. 120 deg rotation - cart. axis [-1,-1,-1]          
     3s_h    26   28   27
          inv. 180 deg rotation - cart. axis [0,0,1]             
     6S4     31   32   39   40   36   35
          inv.  90 deg rotation - cart. axis [0,0,-1]            
     6s_d    29   30   38   37   34   33
          inv. 180 deg rotation - cart. axis [1,1,0]             

   Cartesian axes

     site n.     atom                  positions (alat units)
         1        C      tau(   1) = (   0.0000000   0.0000000   0.0000000  )
         2        C      tau(   2) = (   0.2500000   0.2500000   0.2500000  )

   Crystallographic axes

     site n.     atom                  positions (cryst. coord.)
         1        C      tau(   1) = (  0.0000000  0.0000000  0.0000000  )
         2        C      tau(   2) = ( -0.2500000  0.7500000 -0.2500000  )

     number of k points=    51
                       cart. coord. in units 2pi/alat
        k(    1) = (   0.0000000   0.0000000   0.0000000), wk =   0.0392157
        k(    2) = (   0.0500000   0.0000000   0.0500000), wk =   0.0392157
        k(    3) = (   0.1000000   0.0000000   0.1000000), wk =   0.0392157
        k(    4) = (   0.1500000   0.0000000   0.1500000), wk =   0.0392157
        k(    5) = (   0.2000000   0.0000000   0.2000000), wk =   0.0392157
        k(    6) = (   0.2500000   0.0000000   0.2500000), wk =   0.0392157
        k(    7) = (   0.3000000   0.0000000   0.3000000), wk =   0.0392157
        k(    8) = (   0.3500000   0.0000000   0.3500000), wk =   0.0392157
        k(    9) = (   0.4000000   0.0000000   0.4000000), wk =   0.0392157
        k(   10) = (   0.4500000   0.0000000   0.4500000), wk =   0.0392157
        k(   11) = (   0.5000000   0.0000000   0.5000000), wk =   0.0392157
        k(   12) = (   0.4875000   0.0375000   0.5250000), wk =   0.0392157
        k(   13) = (   0.4750000   0.0750000   0.5500000), wk =   0.0392157
        k(   14) = (   0.4625000   0.1125000   0.5750000), wk =   0.0392157
        k(   15) = (   0.4500000   0.1500000   0.6000000), wk =   0.0392157
        k(   16) = (   0.4375000   0.1875000   0.6250000), wk =   0.0392157
        k(   17) = (   0.4250000   0.2250000   0.6500000), wk =   0.0392157
        k(   18) = (   0.4125000   0.2625000   0.6750000), wk =   0.0392157
        k(   19) = (   0.4000000   0.3000000   0.7000000), wk =   0.0392157
        k(   20) = (   0.3875000   0.3375000   0.7250000), wk =   0.0392157
        k(   21) = (   0.3750000   0.3750000   0.7500000), wk =   0.0392157
        k(   22) = (   0.3375000   0.3375000   0.6750000), wk =   0.0392157
        k(   23) = (   0.3000000   0.3000000   0.6000000), wk =   0.0392157
        k(   24) = (   0.2625000   0.2625000   0.5250000), wk =   0.0392157
        k(   25) = (   0.2250000   0.2250000   0.4500000), wk =   0.0392157
        k(   26) = (   0.1875000   0.1875000   0.3750000), wk =   0.0392157
        k(   27) = (   0.1500000   0.1500000   0.3000000), wk =   0.0392157
        k(   28) = (   0.1125000   0.1125000   0.2250000), wk =   0.0392157
        k(   29) = (   0.0750000   0.0750000   0.1500000), wk =   0.0392157
        k(   30) = (   0.0375000   0.0375000   0.0750000), wk =   0.0392157
        k(   31) = (   0.0000000   0.0000000   0.0000000), wk =   0.0392157
        k(   32) = (   0.0500000   0.0500000   0.0500000), wk =   0.0392157
        k(   33) = (   0.1000000   0.1000000   0.1000000), wk =   0.0392157
        k(   34) = (   0.1500000   0.1500000   0.1500000), wk =   0.0392157
        k(   35) = (   0.2000000   0.2000000   0.2000000), wk =   0.0392157
        k(   36) = (   0.2500000   0.2500000   0.2500000), wk =   0.0392157
        k(   37) = (   0.3000000   0.3000000   0.3000000), wk =   0.0392157
        k(   38) = (   0.3500000   0.3500000   0.3500000), wk =   0.0392157
        k(   39) = (   0.4000000   0.4000000   0.4000000), wk =   0.0392157
        k(   40) = (   0.4500000   0.4500000   0.4500000), wk =   0.0392157
        k(   41) = (   0.5000000   0.5000000   0.5000000), wk =   0.0392157
        k(   42) = (   0.4750000   0.4750000   0.4750000), wk =   0.0392157
        k(   43) = (   0.4500000   0.4500000   0.4500000), wk =   0.0392157
        k(   44) = (   0.4250000   0.4250000   0.4250000), wk =   0.0392157
        k(   45) = (   0.4000000   0.4000000   0.4000000), wk =   0.0392157
        k(   46) = (   0.3750000   0.3750000   0.3750000), wk =   0.0392157
        k(   47) = (   0.3500000   0.3500000   0.3500000), wk =   0.0392157
        k(   48) = (   0.3250000   0.3250000   0.3250000), wk =   0.0392157
        k(   49) = (   0.3000000   0.3000000   0.3000000), wk =   0.0392157
        k(   50) = (   0.2750000   0.2750000   0.2750000), wk =   0.0392157
        k(   51) = (   0.2500000   0.2500000   0.2500000), wk =   0.0392157

                       cryst. coord.
        k(    1) = (   0.0000000   0.0000000   0.0000000), wk =   0.0392157
        k(    2) = (   0.0000000   0.0250000  -0.0250000), wk =   0.0392157
        k(    3) = (   0.0000000   0.0500000  -0.0500000), wk =   0.0392157
        k(    4) = (   0.0000000   0.0750000  -0.0750000), wk =   0.0392157
        k(    5) = (   0.0000000   0.1000000  -0.1000000), wk =   0.0392157
        k(    6) = (   0.0000000   0.1250000  -0.1250000), wk =   0.0392157
        k(    7) = (   0.0000000   0.1500000  -0.1500000), wk =   0.0392157
        k(    8) = (   0.0000000   0.1750000  -0.1750000), wk =   0.0392157
        k(    9) = (   0.0000000   0.2000000  -0.2000000), wk =   0.0392157
        k(   10) = (   0.0000000   0.2250000  -0.2250000), wk =   0.0392157
        k(   11) = (   0.0000000   0.2500000  -0.2500000), wk =   0.0392157
        k(   12) = (   0.0187500   0.2812500  -0.2250000), wk =   0.0392157
        k(   13) = (   0.0375000   0.3125000  -0.2000000), wk =   0.0392157
        k(   14) = (   0.0562500   0.3437500  -0.1750000), wk =   0.0392157
        k(   15) = (   0.0750000   0.3750000  -0.1500000), wk =   0.0392157
        k(   16) = (   0.0937500   0.4062500  -0.1250000), wk =   0.0392157
        k(   17) = (   0.1125000   0.4375000  -0.1000000), wk =   0.0392157
        k(   18) = (   0.1312500   0.4687500  -0.0750000), wk =   0.0392157
        k(   19) = (   0.1500000   0.5000000  -0.0500000), wk =   0.0392157
        k(   20) = (   0.1687500   0.5312500  -0.0250000), wk =   0.0392157
        k(   21) = (   0.1875000   0.5625000   0.0000000), wk =   0.0392157
        k(   22) = (   0.1687500   0.5062500   0.0000000), wk =   0.0392157
        k(   23) = (   0.1500000   0.4500000   0.0000000), wk =   0.0392157
        k(   24) = (   0.1312500   0.3937500   0.0000000), wk =   0.0392157
        k(   25) = (   0.1125000   0.3375000   0.0000000), wk =   0.0392157
        k(   26) = (   0.0937500   0.2812500   0.0000000), wk =   0.0392157
        k(   27) = (   0.0750000   0.2250000   0.0000000), wk =   0.0392157
        k(   28) = (   0.0562500   0.1687500   0.0000000), wk =   0.0392157
        k(   29) = (   0.0375000   0.1125000   0.0000000), wk =   0.0392157
        k(   30) = (   0.0187500   0.0562500   0.0000000), wk =   0.0392157
        k(   31) = (   0.0000000   0.0000000   0.0000000), wk =   0.0392157
        k(   32) = (   0.0000000   0.0500000   0.0000000), wk =   0.0392157
        k(   33) = (   0.0000000   0.1000000   0.0000000), wk =   0.0392157
        k(   34) = (   0.0000000   0.1500000   0.0000000), wk =   0.0392157
        k(   35) = (   0.0000000   0.2000000   0.0000000), wk =   0.0392157
        k(   36) = (   0.0000000   0.2500000   0.0000000), wk =   0.0392157
        k(   37) = (   0.0000000   0.3000000   0.0000000), wk =   0.0392157
        k(   38) = (   0.0000000   0.3500000   0.0000000), wk =   0.0392157
        k(   39) = (   0.0000000   0.4000000   0.0000000), wk =   0.0392157
        k(   40) = (   0.0000000   0.4500000   0.0000000), wk =   0.0392157
        k(   41) = (   0.0000000   0.5000000   0.0000000), wk =   0.0392157
        k(   42) = (   0.0000000   0.4750000   0.0000000), wk =   0.0392157
        k(   43) = (   0.0000000   0.4500000   0.0000000), wk =   0.0392157
        k(   44) = (   0.0000000   0.4250000   0.0000000), wk =   0.0392157
        k(   45) = (   0.0000000   0.4000000   0.0000000), wk =   0.0392157
        k(   46) = (   0.0000000   0.3750000   0.0000000), wk =   0.0392157
        k(   47) = (   0.0000000   0.3500000   0.0000000), wk =   0.0392157
        k(   48) = (   0.0000000   0.3250000   0.0000000), wk =   0.0392157
        k(   49) = (   0.0000000   0.3000000   0.0000000), wk =   0.0392157
        k(   50) = (   0.0000000   0.2750000   0.0000000), wk =   0.0392157
        k(   51) = (   0.0000000   0.2500000   0.0000000), wk =   0.0392157

     Dense  grid:     3695 G-vectors     FFT dimensions: (  24,  24,  24)

     Smooth grid:     1687 G-vectors     FFT dimensions: (  20,  20,  20)

     Dynamical RAM for                 wfc:       0.01 MB

     Dynamical RAM for     wfc (w. buffer):       0.01 MB

     Dynamical RAM for           str. fact:       0.03 MB

     Dynamical RAM for           local pot:       0.00 MB

     Dynamical RAM for          nlocal pot:       0.03 MB

     Dynamical RAM for                qrad:       0.32 MB

     Dynamical RAM for          rho,v,vnew:       0.24 MB

     Dynamical RAM for           G-vectors:       0.11 MB

     Dynamical RAM for          h,s,v(r/c):       0.01 MB

     Dynamical RAM for          <psi|beta>:       0.00 MB

     Dynamical RAM for                 psi:       0.03 MB

     Dynamical RAM for                hpsi:       0.03 MB

     Dynamical RAM for      wfcinit/wfcrot:       0.03 MB

     Estimated static dynamical RAM per process >       1.07 MB

     Estimated max dynamical RAM per process >       1.13 MB

     Estimated total dynamical RAM >       2.26 MB

     The potential is recalculated from file :
     ./diamond.save/charge-density

     Starting wfcs are random

     Band Structure Calculation
     Davidson diagonalization with overlap

     Computing kpt #:     1  of    51
     total cpu time spent up to now is        0.5 secs

     Computing kpt #:     2  of    51
     total cpu time spent up to now is        0.5 secs

     Computing kpt #:     3  of    51
     total cpu time spent up to now is        0.5 secs

     Computing kpt #:     4  of    51
     total cpu time spent up to now is        0.5 secs

     Computing kpt #:     5  of    51
     total cpu time spent up to now is        0.5 secs

     Computing kpt #:     6  of    51
     total cpu time spent up to now is        0.5 secs

     Computing kpt #:     7  of    51
     total cpu time spent up to now is        0.5 secs

     Computing kpt #:     8  of    51
     total cpu time spent up to now is        0.5 secs

     Computing kpt #:     9  of    51
     total cpu time spent up to now is        0.5 secs

     Computing kpt #:    10  of    51
     total cpu time spent up to now is        0.6 secs

     Computing kpt #:    11  of    51
     total cpu time spent up to now is        0.6 secs

     Computing kpt #:    12  of    51
     total cpu time spent up to now is        0.6 secs

     Computing kpt #:    13  of    51
     total cpu time spent up to now is        0.6 secs

     Computing kpt #:    14  of    51
     total cpu time spent up to now is        0.6 secs

     Computing kpt #:    15  of    51
     total cpu time spent up to now is        0.6 secs

     Computing kpt #:    16  of    51
     total cpu time spent up to now is        0.6 secs

     Computing kpt #:    17  of    51
     total cpu time spent up to now is        0.6 secs

     Computing kpt #:    18  of    51
     total cpu time spent up to now is        0.6 secs

     Computing kpt #:    19  of    51
     total cpu time spent up to now is        0.7 secs

     Computing kpt #:    20  of    51
     total cpu time spent up to now is        0.7 secs

     Computing kpt #:    21  of    51
     total cpu time spent up to now is        0.7 secs

     Computing kpt #:    22  of    51
     total cpu time spent up to now is        0.7 secs

     Computing kpt #:    23  of    51
     total cpu time spent up to now is        0.7 secs

     Computing kpt #:    24  of    51
     total cpu time spent up to now is        0.7 secs

     Computing kpt #:    25  of    51
     total cpu time spent up to now is        0.7 secs

     Computing kpt #:    26  of    51
     total cpu time spent up to now is        0.7 secs

     Computing kpt #:    27  of    51
     total cpu time spent up to now is        0.7 secs

     Computing kpt #:    28  of    51
     total cpu time spent up to now is        0.8 secs

     Computing kpt #:    29  of    51
     total cpu time spent up to now is        0.8 secs

     Computing kpt #:    30  of    51
     total cpu time spent up to now is        0.8 secs

     Computing kpt #:    31  of    51
     total cpu time spent up to now is        0.8 secs

     Computing kpt #:    32  of    51
     total cpu time spent up to now is        0.8 secs

     Computing kpt #:    33  of    51
     total cpu time spent up to now is        0.8 secs

     Computing kpt #:    34  of    51
     total cpu time spent up to now is        0.8 secs

     Computing kpt #:    35  of    51
     total cpu time spent up to now is        0.8 secs

     Computing kpt #:    36  of    51
     total cpu time spent up to now is        0.8 secs

     Computing kpt #:    37  of    51
     total cpu time spent up to now is        0.8 secs

     Computing kpt #:    38  of    51
     total cpu time spent up to now is        0.9 secs

     Computing kpt #:    39  of    51
     total cpu time spent up to now is        0.9 secs

     Computing kpt #:    40  of    51
     total cpu time spent up to now is        0.9 secs

     Computing kpt #:    41  of    51
     total cpu time spent up to now is        0.9 secs

     Computing kpt #:    42  of    51
     total cpu time spent up to now is        0.9 secs

     Computing kpt #:    43  of    51
     total cpu time spent up to now is        0.9 secs

     Computing kpt #:    44  of    51
     total cpu time spent up to now is        0.9 secs

     Computing kpt #:    45  of    51
     total cpu time spent up to now is        0.9 secs

     Computing kpt #:    46  of    51
     total cpu time spent up to now is        0.9 secs

     Computing kpt #:    47  of    51
     total cpu time spent up to now is        1.0 secs

     Computing kpt #:    48  of    51
     total cpu time spent up to now is        1.0 secs

     Computing kpt #:    49  of    51
     total cpu time spent up to now is        1.0 secs

     Computing kpt #:    50  of    51
     total cpu time spent up to now is        1.0 secs

     Computing kpt #:    51  of    51
     total cpu time spent up to now is        1.0 secs

     ethr =  1.25E-10,  avg # of iterations = 23.5

     total cpu time spent up to now is        1.0 secs

     End of band structure calculation

          k = 0.0000 0.0000 0.0000 (   181 PWs)   bands (ev):

    -8.1250  14.1506  14.1506  14.1506  19.5504  19.5504  19.5504  26.9924

     occupation numbers 
     1.0000   1.0000   1.0000   1.0000   0.0000   0.0000   0.0000   0.0000

          k = 0.0500 0.0000 0.0500 (   189 PWs)   bands (ev):

    -8.0887  13.7727  13.9261  14.0977  19.5761  19.6166  19.7654  27.0033

     occupation numbers 
     1.0000   1.0000   1.0000   1.0000   0.0000   0.0000   0.0000   0.0000

          k = 0.1000 0.0000 0.1000 (   199 PWs)   bands (ev):

    -7.9612  12.9434  13.2888  13.9718  19.6820  20.0119  20.2717  27.0621

     occupation numbers 
     1.0000   1.0000   1.0000   1.0000   0.0000   0.0000   0.0000   0.0000

          k = 0.1500 0.0000 0.1500 (   213 PWs)   bands (ev):

    -7.7400  11.8834  12.3877  13.6894  19.8386  20.5771  20.8990  27.0847

     occupation numbers 
     1.0000   1.0000   1.0000   1.0000   0.0000   0.0000   0.0000   0.0000

          k = 0.2000 0.0000 0.2000 (   212 PWs)   bands (ev):

    -7.4155  10.8060  11.4822  13.4631  20.1692  21.2662  21.5239  27.2705

     occupation numbers 
     1.0000   1.0000   1.0000   1.0000   0.0000   0.0000   0.0000   0.0000

          k = 0.2500 0.0000 0.2500 (   212 PWs)   bands (ev):

    -6.9995   9.7049  10.5159  13.1666  20.5923  21.9770  22.0121  27.3907

     occupation numbers 
     1.0000   1.0000   1.0000   1.0000   0.0000   0.0000   0.0000   0.0000

          k = 0.3000 0.0000 0.3000 (   208 PWs)   bands (ev):

    -6.4899   8.6301   9.5553  12.8007  21.1455  22.3734  22.7714  27.4141

     occupation numbers 
     1.0000   1.0000   1.0000   1.0000   0.0000   0.0000   0.0000   0.0000

          k = 0.3500 0.0000 0.3500 (   208 PWs)   bands (ev):

    -5.8955   7.5851   8.5950  12.3700  21.7437  22.4690  23.5811  27.3923

     occupation numbers 
     1.0000   1.0000   1.0000   1.0000   0.0000   0.0000   0.0000   0.0000

          k = 0.4000 0.0000 0.4000 (   210 PWs)   bands (ev):

    -5.2313   6.5940   7.6657  11.8861  22.3508  22.4060  24.4451  27.4177

     occupation numbers 
     1.0000   1.0000   1.0000   1.0000   0.0000   0.0000   0.0000   0.0000

          k = 0.4500 0.0000 0.4500 (   210 PWs)   bands (ev):

    -4.4747   5.6661   6.8019  11.3646  22.0444  23.1590  25.3722  27.5528

     occupation numbers 
     1.0000   1.0000   1.0000   1.0000   0.0000   0.0000   0.0000   0.0000

          k = 0.5000 0.0000 0.5000 (   210 PWs)   bands (ev):

    -3.6467   4.8078   6.0116  10.8234  21.6070  23.9793  26.3515  27.8067

     occupation numbers 
     1.0000   1.0000   1.0000   1.0000   0.0000   0.0000   0.0000   0.0000

          k = 0.4875 0.0375 0.5250 (   214 PWs)   bands (ev):

    -3.5355   4.4871   6.1336  10.6910  21.5926  23.9467  26.3570  27.9028

     occupation numbers 
     1.0000   1.0000   1.0000   1.0000   0.0000   0.0000   0.0000   0.0000

          k = 0.4750 0.0750 0.5500 (   213 PWs)   bands (ev):

    -3.3750   3.9588   6.5156  10.5435  21.6884  23.7829  26.2821  28.1073

     occupation numbers 
     1.0000   1.0000   1.0000   1.0000   0.0000   0.0000   0.0000   0.0000

          k = 0.4625 0.1125 0.5750 (   213 PWs)   bands (ev):

    -3.1845   3.3882   6.9520  10.3658  21.8605  23.4724  26.1890  28.2703

     occupation numbers 
     1.0000   1.0000   1.0000   1.0000   0.0000   0.0000   0.0000   0.0000

          k = 0.4500 0.1500 0.6000 (   211 PWs)   bands (ev):

    -2.9605   2.8562   7.4010  10.1464  22.0733  23.0874  26.1409  28.4029

     occupation numbers 
     1.0000   1.0000   1.0000   1.0000   0.0000   0.0000   0.0000   0.0000

          k = 0.4375 0.1875 0.6250 (   212 PWs)   bands (ev):

    -2.7117   2.3286   7.7963   9.9043  22.0988  22.9205  26.1314  28.4311

     occupation numbers 
     1.0000   1.0000   1.0000   1.0000   0.0000   0.0000   0.0000   0.0000

          k = 0.4250 0.2250 0.6500 (   213 PWs)   bands (ev):

    -2.4432   1.8615   8.1114   9.7058  21.7803  23.1629  26.0607  28.4477

     occupation numbers 
     1.0000   1.0000   1.0000   1.0000   0.0000   0.0000   0.0000   0.0000

          k = 0.4125 0.2625 0.6750 (   212 PWs)   bands (ev):

    -2.1725   1.4531   8.2710   9.6412  21.4030  23.5825  25.9572  28.5152

     occupation numbers 
     1.0000   1.0000   1.0000   1.0000   0.0000   0.0000   0.0000   0.0000

          k = 0.4000 0.3000 0.7000 (   213 PWs)   bands (ev):

    -1.9202   1.1220   8.2236   9.6841  21.0866  24.0501  25.7832  28.6164

     occupation numbers 
     1.0000   1.0000   1.0000   1.0000   0.0000   0.0000   0.0000   0.0000

          k = 0.3875 0.3375 0.7250 (   214 PWs)   bands (ev):

    -1.7145   0.9145   8.0333   9.7667  20.8845  24.5025  25.5719  28.7941

     occupation numbers 
     1.0000   1.0000   1.0000   1.0000   0.0000   0.0000   0.0000   0.0000

          k = 0.3750 0.3750 0.7500 (   215 PWs)   bands (ev):

    -1.6116   0.8739   7.7781   9.8363  20.8295  24.7458  25.5138  28.9991

     occupation numbers 
     1.0000   1.0000   1.0000   1.0000   0.0000   0.0000   0.0000   0.0000

          k = 0.3375 0.3375 0.6750 (   217 PWs)   bands (ev):

    -2.2751   1.3392   8.5916   9.7979  20.7633  24.6275  25.0279  28.3071

     occupation numbers 
     1.0000   1.0000   1.0000   1.0000   0.0000   0.0000   0.0000   0.0000

          k = 0.3000 0.3000 0.6000 (   210 PWs)   bands (ev):

    -3.3261   2.5154   9.4467   9.9109  20.7976  24.4572  24.5612  27.7625

     occupation numbers 
     1.0000   1.0000   1.0000   1.0000   0.0000   0.0000   0.0000   0.0000

          k = 0.2625 0.2625 0.5250 (   211 PWs)   bands (ev):

    -4.3997   3.9068  10.1530  10.2744  20.7923  24.0365  24.1508  27.3645

     occupation numbers 
     1.0000   1.0000   1.0000   1.0000   0.0000   0.0000   0.0000   0.0000

          k = 0.2250 0.2250 0.4500 (   210 PWs)   bands (ev):

    -5.3746   5.4586  10.5755  11.1069  20.6652  23.4832  23.7240  27.2700

     occupation numbers 
     1.0000   1.0000   1.0000   1.0000   0.0000   0.0000   0.0000   0.0000

          k = 0.1875 0.1875 0.3750 (   208 PWs)   bands (ev):

    -6.2032   7.1126  11.0916  11.8617  20.5030  22.8890  23.1073  27.3543

     occupation numbers 
     1.0000   1.0000   1.0000   1.0000   0.0000   0.0000   0.0000   0.0000

          k = 0.1500 0.1500 0.3000 (   206 PWs)   bands (ev):

    -6.8982   8.8275  11.7220  12.5468  20.2650  22.2334  22.3487  27.4074

     occupation numbers 
     1.0000   1.0000   1.0000   1.0000   0.0000   0.0000   0.0000   0.0000

          k = 0.1125 0.1125 0.2250 (   203 PWs)   bands (ev):

    -7.4447  10.5286  12.4888  13.1677  19.9823  21.4475  21.4595  27.3283

     occupation numbers 
     1.0000   1.0000   1.0000   1.0000   0.0000   0.0000   0.0000   0.0000

          k = 0.0750 0.0750 0.1500 (   203 PWs)   bands (ev):

    -7.8368  12.1291  13.2425  13.6317  19.6977  20.5009  20.5937  27.1176

     occupation numbers 
     1.0000   1.0000   1.0000   1.0000   0.0000   0.0000   0.0000   0.0000

          k = 0.0375 0.0375 0.0750 (   193 PWs)   bands (ev):

    -8.0626  13.5190  13.8639  14.0048  19.5434  19.8090  19.8237  27.0131

     occupation numbers 
     1.0000   1.0000   1.0000   1.0000   0.0000   0.0000   0.0000   0.0000

          k = 0.0000 0.0000 0.0000 (   181 PWs)   bands (ev):

    -8.1250  14.1506  14.1506  14.1506  19.5504  19.5504  19.5504  26.9924

     occupation numbers 
     1.0000   1.0000   1.0000   1.0000   0.0000   0.0000   0.0000   0.0000

          k = 0.0500 0.0500 0.0500 (   193 PWs)   bands (ev):

    -8.0712  13.5128  13.9802  13.9802  19.6833  19.6833  19.7446  27.0046

     occupation numbers 
     1.0000   1.0000   1.0000   1.0000   0.0000   0.0000   0.0000   0.0000

          k = 0.1000 0.1000 0.1000 (   202 PWs)   bands (ev):

    -7.8714  12.1559  13.6042  13.6042  20.0545  20.0545  20.3956  27.1420

     occupation numbers 
     1.0000   1.0000   1.0000   1.0000   0.0000   0.0000   0.0000   0.0000

          k = 0.1500 0.1500 0.1500 (   208 PWs)   bands (ev):

    -7.5241  10.5181  13.0858  13.0858  20.6226  20.6226  21.0174  27.3968

     occupation numbers 
     1.0000   1.0000   1.0000   1.0000   0.0000   0.0000   0.0000   0.0000

          k = 0.2000 0.2000 0.2000 (   205 PWs)   bands (ev):

    -7.0370   8.7921  12.6174  12.6174  21.2178  21.2178  21.5434  27.8891

     occupation numbers 
     1.0000   1.0000   1.0000   1.0000   0.0000   0.0000   0.0000   0.0000

          k = 0.2500 0.2500 0.2500 (   205 PWs)   bands (ev):

    -6.4164   7.0200  12.1789  12.1789  21.6987  21.6987  21.8479  28.4351

     occupation numbers 
     1.0000   1.0000   1.0000   1.0000   0.0000   0.0000   0.0000   0.0000

          k = 0.3000 0.3000 0.3000 (   205 PWs)   bands (ev):

    -5.6652   5.2796  11.7997  11.7997  22.0296  22.0296  22.0411  28.9413

     occupation numbers 
     1.0000   1.0000   1.0000   1.0000   0.0000   0.0000   0.0000   0.0000

          k = 0.3500 0.3500 0.3500 (   205 PWs)   bands (ev):

    -4.7941   3.6160  11.4955  11.4955  22.1639  22.2131  22.2131  29.3247

     occupation numbers 
     1.0000   1.0000   1.0000   1.0000   0.0000   0.0000   0.0000   0.0000

          k = 0.4000 0.4000 0.4000 (   210 PWs)   bands (ev):

    -3.8709   2.0839  11.2665  11.2665  22.2423  22.2437  22.2437  29.5521

     occupation numbers 
     1.0000   1.0000   1.0000   1.0000   0.0000   0.0000   0.0000   0.0000

          k = 0.4500 0.4500 0.4500 (   213 PWs)   bands (ev):

    -2.9180   0.7456  11.1324  11.1324  22.2592  22.2592  22.2785  29.6264

     occupation numbers 
     1.0000   1.0000   1.0000   1.0000   0.0000   0.0000   0.0000   0.0000

          k = 0.5000 0.5000 0.5000 (   210 PWs)   bands (ev):

    -2.3761   0.0849  11.1017  11.1017  22.2646  22.2646  22.3296  29.7226

     occupation numbers 
     1.0000   1.0000   1.0000   1.0000   0.0000   0.0000   0.0000   0.0000

          k = 0.4750 0.4750 0.4750 (   213 PWs)   bands (ev):

    -2.5367   0.2746  11.0993  11.0993  22.2609  22.2609  22.2930  29.6465

     occupation numbers 
     1.0000   1.0000   1.0000   1.0000   0.0000   0.0000   0.0000   0.0000

          k = 0.4500 0.4500 0.4500 (   213 PWs)   bands (ev):

    -2.9180   0.7456  11.1324  11.1324  22.2592  22.2592  22.2785  29.6264

     occupation numbers 
     1.0000   1.0000   1.0000   1.0000   0.0000   0.0000   0.0000   0.0000

          k = 0.4250 0.4250 0.4250 (   213 PWs)   bands (ev):

    -3.3879   1.3644  11.1881  11.1881  22.2535  22.2535  22.2583  29.5869

     occupation numbers 
     1.0000   1.0000   1.0000   1.0000   0.0000   0.0000   0.0000   0.0000

          k = 0.4000 0.4000 0.4000 (   210 PWs)   bands (ev):

    -3.8709   2.0839  11.2665  11.2665  22.2423  22.2437  22.2437  29.5521

     occupation numbers 
     1.0000   1.0000   1.0000   1.0000   0.0000   0.0000   0.0000   0.0000

          k = 0.3750 0.3750 0.3750 (   211 PWs)   bands (ev):

    -4.3589   2.8158  11.3664  11.3664  22.2062  22.2163  22.2163  29.4502

     occupation numbers 
     1.0000   1.0000   1.0000   1.0000   0.0000   0.0000   0.0000   0.0000

          k = 0.3500 0.3500 0.3500 (   205 PWs)   bands (ev):

    -4.7941   3.6160  11.4955  11.4955  22.1639  22.2131  22.2131  29.3247

     occupation numbers 
     1.0000   1.0000   1.0000   1.0000   0.0000   0.0000   0.0000   0.0000

          k = 0.3250 0.3250 0.3250 (   205 PWs)   bands (ev):

    -5.2436   4.4356  11.6375  11.6375  22.1093  22.1377  22.1377  29.1520

     occupation numbers 
     1.0000   1.0000   1.0000   1.0000   0.0000   0.0000   0.0000   0.0000

          k = 0.3000 0.3000 0.3000 (   205 PWs)   bands (ev):

    -5.6652   5.2796  11.7997  11.7997  22.0296  22.0296  22.0411  28.9413

     occupation numbers 
     1.0000   1.0000   1.0000   1.0000   0.0000   0.0000   0.0000   0.0000

          k = 0.2750 0.2750 0.2750 (   205 PWs)   bands (ev):

    -6.0566   6.1428  11.9806  11.9806  21.8840  21.8840  21.9556  28.6991

     occupation numbers 
     1.0000   1.0000   1.0000   1.0000   0.0000   0.0000   0.0000   0.0000

          k = 0.2500 0.2500 0.2500 (   205 PWs)   bands (ev):

    -6.4164   7.0200  12.1789  12.1789  21.6987  21.6987  21.8479  28.4351

     occupation numbers 
     1.0000   1.0000   1.0000   1.0000   0.0000   0.0000   0.0000   0.0000

     highest occupied, lowest unoccupied level (ev):    14.1506   19.5434

     Writing all to output data dir ./diamond.save/ :
     XML data file, pseudopotentials, collected wavefunctions

     init_run     :      0.34s CPU      0.38s WALL (       1 calls)
     electrons    :      0.47s CPU      0.57s WALL (       1 calls)

     Called by init_run:
     wfcinit      :      0.00s CPU      0.00s WALL (       1 calls)
     wfcinit:wfcr :      0.04s CPU      0.05s WALL (      51 calls)
     potinit      :      0.15s CPU      0.15s WALL (       1 calls)
     hinit0       :      0.19s CPU      0.19s WALL (       1 calls)

     Called by electrons:
     c_bands      :      0.47s CPU      0.57s WALL (       1 calls)
     v_of_rho     :      0.00s CPU      0.00s WALL (       1 calls)
     v_h          :      0.00s CPU      0.00s WALL (       1 calls)
     v_xc         :      0.00s CPU      0.00s WALL (       1 calls)

     Called by c_bands:
     init_us_2    :      0.00s CPU      0.00s WALL (      51 calls)
     cegterg      :      0.42s CPU      0.51s WALL (      90 calls)

     Called by sum_band:

     Called by *egterg:
     cdiaghg      :      0.14s CPU      0.16s WALL (    1248 calls)
     cegterg:over :      0.01s CPU      0.01s WALL (    1197 calls)
     cegterg:upda :      0.01s CPU      0.02s WALL (    1197 calls)
     cegterg:last :      0.01s CPU      0.01s WALL (     960 calls)
     h_psi        :      0.28s CPU      0.33s WALL (    1338 calls)
     g_psi        :      0.00s CPU      0.00s WALL (    1197 calls)

     Called by h_psi:
     h_psi:calbec :      0.01s CPU      0.01s WALL (    1338 calls)
     vloc_psi     :      0.25s CPU      0.30s WALL (    1338 calls)
     add_vuspsi   :      0.01s CPU      0.01s WALL (    1338 calls)

     General routines
     calbec       :      0.01s CPU      0.01s WALL (    1338 calls)
     fft          :      0.17s CPU      0.18s WALL (      11 calls)
     ffts         :      0.14s CPU      0.15s WALL (       1 calls)
     fftw         :      0.19s CPU      0.23s WALL (   16518 calls)
     interpolate  :      0.14s CPU      0.15s WALL (       1 calls)
     davcio       :      0.00s CPU      0.00s WALL (     102 calls)

     Parallel routines

     PWSCF        :      0.86s CPU      1.54s WALL


   This run was terminated on:  23:55:43   5Oct2024            

=------------------------------------------------------------------------------=
   JOB DONE.
=------------------------------------------------------------------------------=
