
     Program BANDS v.7.3.1 starts on  5Oct2024 at 22:56:44 

     This program is part of the open-source Quantum ESPRESSO suite
     for quantum simulation of materials; please cite
         "P. Giannozzi et al., J. Phys.:Condens. Matter 21 395502 (2009);
         "P. Giannozzi et al., J. Phys.:Condens. Matter 29 465901 (2017);
         "P. Giannozzi et al., J. Chem. Phys. 152 154105 (2020);
          URL http://www.quantum-espresso.org", 
     in publications or presentations arising from this work. More details at
     http://www.quantum-espresso.org/quote

     Parallel version (MPI & OpenMP), running on       2 processor cores
     Number of MPI processes:                 2
     Threads/MPI process:                     1

     MPI processes distributed on     1 nodes
     R & G space division:  proc/nbgrp/npool/nimage =       2
     508829 MiB available memory on the printing compute node when the environment starts


     Reading xml data from directory:

     ./diamond.save/

     IMPORTANT: XC functional enforced from input :
     Exchange-correlation= PBE
                           (   1   4   3   4   0   0   0)
     Any further DFT definition will be discarded
     Please, verify this is what you really want


     Parallelization info
     --------------------
     sticks:   dense  smooth     PW     G-vecs:    dense   smooth      PW
     Min         156     126     42                 1847     1318     264
     Max         157     127     43                 1848     1319     267
     Sum         313     253     85                 3695     2637     531

     Using Slab Decomposition

     Reading collected, re-writing distributed wavefunctions
     high-symmetry point:  0.0000 0.0000 0.0000   x coordinate   0.0000
     high-symmetry point:  0.5000 0.0000 0.5000   x coordinate   0.7071
     high-symmetry point:  0.3750 0.3750 0.7500   x coordinate   1.1748
     high-symmetry point:  0.0000 0.0000 0.0000   x coordinate   2.0934
     high-symmetry point:  0.5000 0.5000 0.5000   x coordinate   2.9594
     high-symmetry point:  0.2500 0.2500 0.2500   x coordinate   3.3924

     Plottable bands (eV) written to file bands.dat.gnu
     Bands written to file bands.dat

 **************************************************************************

                    xk=(   0.00000,   0.00000,   0.00000  )

     point group O_h (m-3m) 
     there are 10 classes
     the character table:

       E     8C3   3C2   6C4   6C2'  i     8S6   3s_h  6S4   6s_d 
A_1g   1.00  1.00  1.00  1.00  1.00  1.00  1.00  1.00  1.00  1.00
A_2g   1.00  1.00  1.00 -1.00 -1.00  1.00  1.00  1.00 -1.00 -1.00
E_g    2.00 -1.00  2.00  0.00  0.00  2.00 -1.00  2.00  0.00  0.00
T_1g   3.00  0.00 -1.00  1.00 -1.00  3.00  0.00 -1.00  1.00 -1.00
T_2g   3.00  0.00 -1.00 -1.00  1.00  3.00  0.00 -1.00 -1.00  1.00
A_1u   1.00  1.00  1.00  1.00  1.00 -1.00 -1.00 -1.00 -1.00 -1.00
A_2u   1.00  1.00  1.00 -1.00 -1.00 -1.00 -1.00 -1.00  1.00  1.00
E_u    2.00 -1.00  2.00  0.00  0.00 -2.00  1.00 -2.00  0.00  0.00
T_1u   3.00  0.00 -1.00  1.00 -1.00 -3.00  0.00  1.00 -1.00  1.00
T_2u   3.00  0.00 -1.00 -1.00  1.00 -3.00  0.00  1.00  1.00 -1.00

     the symmetry operations in each class and the name of the first element:

     E        1
                                                                 
     8C3     17   19   20   18   24   21   22   23
                                                                 
     3C2      2    4    3
                                                                 
     6C4      7    8   15   16   12   11
                                                                 
     6C2'     5    6   14   13   10    9
                                                                 
     i       25
                                                                 
     8S6     41   43   44   42   48   45   46   47
                                                                 
     3s_h    26   28   27
                                                                 
     6S4     31   32   39   40   36   35
                                                                 
     6s_d    29   30   38   37   34   33
                                                                 

     Band symmetry, O_h (m-3m)  point group:

     e(  1 -  1) =     -8.11524  eV     1   --> A_1g G_1   G_1+
     e(  2 -  4) =     13.50213  eV     3   --> T_2g G_25' G_5+
     e(  5 -  7) =     19.14548  eV     3   --> T_1u G_15  G_4-
     e(  8 -  8) =     26.70729  eV     1   --> A_2u G_2'  G_2-

 **************************************************************************

 **************************************************************************

                    xk=(   0.05000,   0.00000,   0.05000  )

     point group C_2v (mm2) 
     there are  4 classes
     the character table:

       E     C2    s_v   s_v' 
A_1    1.00  1.00  1.00  1.00
A_2    1.00  1.00 -1.00 -1.00
B_1    1.00 -1.00  1.00 -1.00
B_2    1.00 -1.00 -1.00  1.00

     the symmetry operations in each class and the name of the first element:

     E        1
                                                                 
     C2       2
                                                                 
     s_v      3
                                                                 
     s_v'     4
                                                                 

     Band symmetry, C_2v (mm2)  point group:

     e(  1 -  1) =     -8.06873  eV     1   --> A_1  D_1  S_1  
     e(  2 -  2) =     13.22414  eV     1   --> B_2  D_4  S_4  
     e(  3 -  3) =     13.30628  eV     1   --> A_1  D_1  S_1  
     e(  4 -  4) =     13.47394  eV     1   --> A_2  D_2  S_2  
     e(  5 -  5) =     19.19308  eV     1   --> B_1  D_3  S_3  
     e(  6 -  6) =     19.29493  eV     1   --> A_1  D_1  S_1  
     e(  7 -  7) =     19.37407  eV     1   --> B_2  D_4  S_4  
     e(  8 -  8) =     26.75260  eV     1   --> B_2  D_4  S_4  

 **************************************************************************

 **************************************************************************

                    xk=(   0.10000,   0.00000,   0.10000  )

     Band symmetry, C_2v (mm2)  point group:

     e(  1 -  1) =     -7.92933  eV     1   --> A_1  D_1  S_1  
     e(  2 -  2) =     12.51257  eV     1   --> B_2  D_4  S_4  
     e(  3 -  3) =     12.77671  eV     1   --> A_1  D_1  S_1  
     e(  4 -  4) =     13.38803  eV     1   --> A_2  D_2  S_2  
     e(  5 -  5) =     19.33561  eV     1   --> B_1  D_3  S_3  
     e(  6 -  6) =     19.69320  eV     1   --> A_1  D_1  S_1  
     e(  7 -  7) =     19.93115  eV     1   --> B_2  D_4  S_4  
     e(  8 -  8) =     26.87818  eV     1   --> B_2  D_4  S_4  

 **************************************************************************

 **************************************************************************

                    xk=(   0.15000,   0.00000,   0.15000  )

     Band symmetry, C_2v (mm2)  point group:

     e(  1 -  1) =     -7.69871  eV     1   --> A_1  D_1  S_1  
     e(  2 -  2) =     11.59923  eV     1   --> B_2  D_4  S_4  
     e(  3 -  3) =     12.02747  eV     1   --> A_1  D_1  S_1  
     e(  4 -  4) =     13.24961  eV     1   --> A_2  D_2  S_2  
     e(  5 -  5) =     19.57227  eV     1   --> B_1  D_3  S_3  
     e(  6 -  6) =     20.24068  eV     1   --> A_1  D_1  S_1  
     e(  7 -  7) =     20.60242  eV     1   --> B_2  D_4  S_4  
     e(  8 -  8) =     27.05073  eV     1   --> B_2  D_4  S_4  

 **************************************************************************

 **************************************************************************

                    xk=(   0.20000,   0.00000,   0.20000  )

     Band symmetry, C_2v (mm2)  point group:

     e(  1 -  1) =     -7.37522  eV     1   --> A_1  D_1  S_1  
     e(  2 -  2) =     10.56340  eV     1   --> B_2  D_4  S_4  
     e(  3 -  3) =     11.15381  eV     1   --> A_1  D_1  S_1  
     e(  4 -  4) =     13.03654  eV     1   --> A_2  D_2  S_2  
     e(  5 -  5) =     19.90261  eV     1   --> B_1  D_3  S_3  
     e(  6 -  6) =     20.91916  eV     1   --> A_1  D_1  S_1  
     e(  7 -  7) =     21.25180  eV     1   --> B_2  D_4  S_4  
     e(  8 -  8) =     27.21476  eV     1   --> B_2  D_4  S_4  

 **************************************************************************

 **************************************************************************

                    xk=(   0.25000,   0.00000,   0.25000  )

     Band symmetry, C_2v (mm2)  point group:

     e(  1 -  1) =     -6.96101  eV     1   --> A_1  D_1  S_1  
     e(  2 -  2) =      9.50827  eV     1   --> B_2  D_4  S_4  
     e(  3 -  3) =     10.23613  eV     1   --> A_1  D_1  S_1  
     e(  4 -  4) =     12.78831  eV     1   --> A_2  D_2  S_2  
     e(  5 -  5) =     20.32260  eV     1   --> B_1  D_3  S_3  
     e(  6 -  6) =     21.65716  eV     1   --> A_1  D_1  S_1  
     e(  7 -  7) =     21.77283  eV     1   --> B_2  D_4  S_4  
     e(  8 -  8) =     27.30431  eV     1   --> B_2  D_4  S_4  

 **************************************************************************

 **************************************************************************

                    xk=(   0.30000,   0.00000,   0.30000  )

     Band symmetry, C_2v (mm2)  point group:

     e(  1 -  1) =     -6.45888  eV     1   --> A_1  D_1  S_1  
     e(  2 -  2) =      8.44685  eV     1   --> B_2  D_4  S_4  
     e(  3 -  3) =      9.28285  eV     1   --> A_1  D_1  S_1  
     e(  4 -  4) =     12.43432  eV     1   --> A_2  D_2  S_2  
     e(  5 -  5) =     20.83032  eV     1   --> B_1  D_3  S_3  
     e(  6 -  6) =     22.09712  eV     1   --> B_2  D_4  S_4  
     e(  7 -  7) =     22.41238  eV     1   --> A_1  D_1  S_1  
     e(  8 -  8) =     27.28463  eV     1   --> B_2  D_4  S_4  

 **************************************************************************

 **************************************************************************

                    xk=(   0.35000,   0.00000,   0.35000  )

     Band symmetry, C_2v (mm2)  point group:

     e(  1 -  1) =     -5.87114  eV     1   --> A_1  D_1  S_1  
     e(  2 -  2) =      7.42150  eV     1   --> B_2  D_4  S_4  
     e(  3 -  3) =      8.34778  eV     1   --> A_1  D_1  S_1  
     e(  4 -  4) =     12.00488  eV     1   --> A_2  D_2  S_2  
     e(  5 -  5) =     21.41164  eV     1   --> B_1  D_3  S_3  
     e(  6 -  6) =     22.21569  eV     1   --> B_2  D_4  S_4  
     e(  7 -  7) =     23.21755  eV     1   --> A_1  D_1  S_1  
     e(  8 -  8) =     27.18599  eV     1   --> B_2  D_4  S_4  

 **************************************************************************

 **************************************************************************

                    xk=(   0.40000,   0.00000,   0.40000  )

     Band symmetry, C_2v (mm2)  point group:

     e(  1 -  1) =     -5.19763  eV     1   --> A_1  D_1  S_1  
     e(  2 -  2) =      6.45721  eV     1   --> B_2  D_4  S_4  
     e(  3 -  3) =      7.45595  eV     1   --> A_1  D_1  S_1  
     e(  4 -  4) =     11.53461  eV     1   --> A_2  D_2  S_2  
     e(  5 -  5) =     22.08602  eV     1   --> B_1  D_3  S_3  
     e(  6 -  6) =     22.12805  eV     1   --> B_2  D_4  S_4  
     e(  7 -  7) =     24.08853  eV     1   --> A_1  D_1  S_1  
     e(  8 -  8) =     27.17478  eV     1   --> B_2  D_4  S_4  

 **************************************************************************

 **************************************************************************

                    xk=(   0.45000,   0.00000,   0.45000  )

     Band symmetry, C_2v (mm2)  point group:

     e(  1 -  1) =     -4.44536  eV     1   --> A_1  D_1  S_1  
     e(  2 -  2) =      5.55390  eV     1   --> B_2  D_4  S_4  
     e(  3 -  3) =      6.61210  eV     1   --> A_1  D_1  S_1  
     e(  4 -  4) =     11.02694  eV     1   --> A_2  D_2  S_2  
     e(  5 -  5) =     21.85235  eV     1   --> B_2  D_4  S_4  
     e(  6 -  6) =     22.82753  eV     1   --> B_1  D_3  S_3  
     e(  7 -  7) =     25.00417  eV     1   --> A_1  D_1  S_1  
     e(  8 -  8) =     27.26675  eV     1   --> B_2  D_4  S_4  

 **************************************************************************

 **************************************************************************

                    xk=(   0.50000,   0.00000,   0.50000  )

     Band symmetry, C_2v (mm2)  point group:

     e(  1 -  1) =     -3.62658  eV     1   --> A_1  D_1  S_1  
     e(  2 -  2) =      4.71235  eV     1   --> B_2  D_4  S_4  
     e(  3 -  3) =      5.83498  eV     1   --> A_1  D_1  S_1  
     e(  4 -  4) =     10.47775  eV     1   --> A_2  D_2  S_2  
     e(  5 -  5) =     21.43994  eV     1   --> B_2  D_4  S_4  
     e(  6 -  6) =     23.63266  eV     1   --> B_1  D_3  S_3  
     e(  7 -  7) =     25.96529  eV     1   --> A_1  D_1  S_1  
     e(  8 -  8) =     27.43565  eV     1   --> B_2  D_4  S_4  

 **************************************************************************

 **************************************************************************

                    xk=(   0.48750,   0.03750,   0.52500  )

     point group C_1 (1)    
     there are  1 classes
     the character table:

       E    
A      1.00

     the symmetry operations in each class and the name of the first element:

     E        1
                                                                 

     Band symmetry, C_1 (1)     point group:

     e(  1 -  1) =     -3.50182  eV     1   --> A              
     e(  2 -  2) =      4.39571  eV     1   --> A              
     e(  3 -  3) =      5.97422  eV     1   --> A              
     e(  4 -  4) =     10.38294  eV     1   --> A              
     e(  5 -  5) =     21.43059  eV     1   --> A              
     e(  6 -  6) =     23.65330  eV     1   --> A              
     e(  7 -  7) =     26.00132  eV     1   --> A              
     e(  8 -  8) =     27.52874  eV     1   --> A              

 **************************************************************************

 **************************************************************************

                    xk=(   0.47500,   0.07500,   0.55000  )

     Band symmetry, C_1 (1)     point group:

     e(  1 -  1) =     -3.34339  eV     1   --> A              
     e(  2 -  2) =      3.87015  eV     1   --> A              
     e(  3 -  3) =      6.34746  eV     1   --> A              
     e(  4 -  4) =     10.24257  eV     1   --> A              
     e(  5 -  5) =     21.51344  eV     1   --> A              
     e(  6 -  6) =     23.49446  eV     1   --> A              
     e(  7 -  7) =     25.92898  eV     1   --> A              
     e(  8 -  8) =     27.71069  eV     1   --> A              

 **************************************************************************

 **************************************************************************

                    xk=(   0.46250,   0.11250,   0.57500  )

     Band symmetry, C_1 (1)     point group:

     e(  1 -  1) =     -3.15231  eV     1   --> A              
     e(  2 -  2) =      3.31334  eV     1   --> A              
     e(  3 -  3) =      6.77932  eV     1   --> A              
     e(  4 -  4) =     10.05723  eV     1   --> A              
     e(  5 -  5) =     21.67540  eV     1   --> A              
     e(  6 -  6) =     23.19163  eV     1   --> A              
     e(  7 -  7) =     25.86768  eV     1   --> A              
     e(  8 -  8) =     27.87543  eV     1   --> A              

 **************************************************************************

 **************************************************************************

                    xk=(   0.45000,   0.15000,   0.60000  )

     Band symmetry, C_1 (1)     point group:

     e(  1 -  1) =     -2.92874  eV     1   --> A              
     e(  2 -  2) =      2.76729  eV     1   --> A              
     e(  3 -  3) =      7.20640  eV     1   --> A              
     e(  4 -  4) =      9.83425  eV     1   --> A              
     e(  5 -  5) =     21.86269  eV     1   --> A              
     e(  6 -  6) =     22.83697  eV     1   --> A              
     e(  7 -  7) =     25.82206  eV     1   --> A              
     e(  8 -  8) =     27.95998  eV     1   --> A              

 **************************************************************************

 **************************************************************************

                    xk=(   0.43750,   0.18750,   0.62500  )

     Band symmetry, C_1 (1)     point group:

     e(  1 -  1) =     -2.68103  eV     1   --> A              
     e(  2 -  2) =      2.25603  eV     1   --> A              
     e(  3 -  3) =      7.60714  eV     1   --> A              
     e(  4 -  4) =      9.61640  eV     1   --> A              
     e(  5 -  5) =     21.88020  eV     1   --> A              
     e(  6 -  6) =     22.69276  eV     1   --> A              
     e(  7 -  7) =     25.80081  eV     1   --> A              
     e(  8 -  8) =     28.02612  eV     1   --> A              

 **************************************************************************

 **************************************************************************

                    xk=(   0.42500,   0.22500,   0.65000  )

     Band symmetry, C_1 (1)     point group:

     e(  1 -  1) =     -2.41160  eV     1   --> A              
     e(  2 -  2) =      1.78818  eV     1   --> A              
     e(  3 -  3) =      7.92131  eV     1   --> A              
     e(  4 -  4) =      9.42769  eV     1   --> A              
     e(  5 -  5) =     21.57054  eV     1   --> A              
     e(  6 -  6) =     22.94183  eV     1   --> A              
     e(  7 -  7) =     25.75147  eV     1   --> A              
     e(  8 -  8) =     28.07609  eV     1   --> A              

 **************************************************************************

 **************************************************************************

                    xk=(   0.41250,   0.26250,   0.67500  )

     Band symmetry, C_1 (1)     point group:

     e(  1 -  1) =     -2.13599  eV     1   --> A              
     e(  2 -  2) =      1.37843  eV     1   --> A              
     e(  3 -  3) =      8.06624  eV     1   --> A              
     e(  4 -  4) =      9.33091  eV     1   --> A              
     e(  5 -  5) =     21.20088  eV     1   --> A              
     e(  6 -  6) =     23.34640  eV     1   --> A              
     e(  7 -  7) =     25.64930  eV     1   --> A              
     e(  8 -  8) =     28.13664  eV     1   --> A              

 **************************************************************************

 **************************************************************************

                    xk=(   0.40000,   0.30000,   0.70000  )

     Band symmetry, C_1 (1)     point group:

     e(  1 -  1) =     -1.87647  eV     1   --> A              
     e(  2 -  2) =      1.05083  eV     1   --> A              
     e(  3 -  3) =      8.01427  eV     1   --> A              
     e(  4 -  4) =      9.37373  eV     1   --> A              
     e(  5 -  5) =     20.90151  eV     1   --> A              
     e(  6 -  6) =     23.80001  eV     1   --> A              
     e(  7 -  7) =     25.49388  eV     1   --> A              
     e(  8 -  8) =     28.24679  eV     1   --> A              

 **************************************************************************

 **************************************************************************

                    xk=(   0.38750,   0.33750,   0.72500  )

     Band symmetry, C_1 (1)     point group:

     e(  1 -  1) =     -1.66856  eV     1   --> A              
     e(  2 -  2) =      0.85115  eV     1   --> A              
     e(  3 -  3) =      7.82835  eV     1   --> A              
     e(  4 -  4) =      9.47489  eV     1   --> A              
     e(  5 -  5) =     20.72077  eV     1   --> A              
     e(  6 -  6) =     24.25221  eV     1   --> A              
     e(  7 -  7) =     25.31391  eV     1   --> A              
     e(  8 -  8) =     28.40867  eV     1   --> A              

 **************************************************************************

 **************************************************************************

                    xk=(   0.37500,   0.37500,   0.75000  )

     point group C_s (m)    
     there are  2 classes
     the character table:

       E     s    
A'     1.00  1.00
A''    1.00 -1.00

     the symmetry operations in each class and the name of the first element:

     E        1
                                                                 
     s        2
                                                                 

     Band symmetry, C_s (m)     point group:

     e(  1 -  1) =     -1.56141  eV     1   --> A'             
     e(  2 -  2) =      0.81611  eV     1   --> A'             
     e(  3 -  3) =      7.57800  eV     1   --> A'             
     e(  4 -  4) =      9.54273  eV     1   --> A''            
     e(  5 -  5) =     20.67556  eV     1   --> A'             
     e(  6 -  6) =     24.48133  eV     1   --> A''            
     e(  7 -  7) =     25.26883  eV     1   --> A'             
     e(  8 -  8) =     28.59545  eV     1   --> A'             

 **************************************************************************

 **************************************************************************

                    xk=(   0.33750,   0.33750,   0.67500  )

     Band symmetry, C_s (m)     point group:

     e(  1 -  1) =     -2.22896  eV     1   --> A'             
     e(  2 -  2) =      1.29011  eV     1   --> A'             
     e(  3 -  3) =      8.38285  eV     1   --> A'             
     e(  4 -  4) =      9.50576  eV     1   --> A''            
     e(  5 -  5) =     20.61901  eV     1   --> A'             
     e(  6 -  6) =     24.39264  eV     1   --> A''            
     e(  7 -  7) =     24.80930  eV     1   --> A'             
     e(  8 -  8) =     27.96633  eV     1   --> A'             

 **************************************************************************

 **************************************************************************

                    xk=(   0.30000,   0.30000,   0.60000  )

     Band symmetry, C_s (m)     point group:

     e(  1 -  1) =     -3.31024  eV     1   --> A'             
     e(  2 -  2) =      2.42971  eV     1   --> A'             
     e(  3 -  3) =      9.20331  eV     1   --> A'             
     e(  4 -  4) =      9.60469  eV     1   --> A''            
     e(  5 -  5) =     20.60065  eV     1   --> A'             
     e(  6 -  6) =     24.16464  eV     1   --> A''            
     e(  7 -  7) =     24.30481  eV     1   --> A'             
     e(  8 -  8) =     27.40125  eV     1   --> A'             

 **************************************************************************

 **************************************************************************

                    xk=(   0.26250,   0.26250,   0.52500  )

     Band symmetry, C_s (m)     point group:

     e(  1 -  1) =     -4.37731  eV     1   --> A'             
     e(  2 -  2) =      3.81119  eV     1   --> A'             
     e(  3 -  3) =      9.84924  eV     1   --> A''            
     e(  4 -  4) =     10.01899  eV     1   --> A'             
     e(  5 -  5) =     20.55777  eV     1   --> A'             
     e(  6 -  6) =     23.77982  eV     1   --> A'             
     e(  7 -  7) =     23.84669  eV     1   --> A''            
     e(  8 -  8) =     27.06876  eV     1   --> A'             

 **************************************************************************

 **************************************************************************

                    xk=(   0.22500,   0.22500,   0.45000  )

     Band symmetry, C_s (m)     point group:

     e(  1 -  1) =     -5.34534  eV     1   --> A'             
     e(  2 -  2) =      5.33454  eV     1   --> A'             
     e(  3 -  3) =     10.23132  eV     1   --> A''            
     e(  4 -  4) =     10.80040  eV     1   --> A'             
     e(  5 -  5) =     20.45098  eV     1   --> A'             
     e(  6 -  6) =     23.21805  eV     1   --> A'             
     e(  7 -  7) =     23.40223  eV     1   --> A''            
     e(  8 -  8) =     27.02559  eV     1   --> A'             

 **************************************************************************

 **************************************************************************

                    xk=(   0.18750,   0.18750,   0.37500  )

     Band symmetry, C_s (m)     point group:

     e(  1 -  1) =     -6.18033  eV     1   --> A'             
     e(  2 -  2) =      6.94915  eV     1   --> A'             
     e(  3 -  3) =     10.73494  eV     1   --> A''            
     e(  4 -  4) =     11.52777  eV     1   --> A'             
     e(  5 -  5) =     20.23014  eV     1   --> A'             
     e(  6 -  6) =     22.59748  eV     1   --> A'             
     e(  7 -  7) =     22.78088  eV     1   --> A''            
     e(  8 -  8) =     27.17410  eV     1   --> A'             

 **************************************************************************

 **************************************************************************

                    xk=(   0.15000,   0.15000,   0.30000  )

     Band symmetry, C_s (m)     point group:

     e(  1 -  1) =     -6.86955  eV     1   --> A'             
     e(  2 -  2) =      8.62142  eV     1   --> A'             
     e(  3 -  3) =     11.35532  eV     1   --> A''            
     e(  4 -  4) =     12.18603  eV     1   --> A'             
     e(  5 -  5) =     19.96280  eV     1   --> A'             
     e(  6 -  6) =     21.91703  eV     1   --> A'             
     e(  7 -  7) =     21.97110  eV     1   --> A''            
     e(  8 -  8) =     27.29816  eV     1   --> A'             

 **************************************************************************

 **************************************************************************

                    xk=(   0.11250,   0.11250,   0.22500  )

     Band symmetry, C_s (m)     point group:

     e(  1 -  1) =     -7.41203  eV     1   --> A'             
     e(  2 -  2) =     10.26916  eV     1   --> A'             
     e(  3 -  3) =     12.03131  eV     1   --> A''            
     e(  4 -  4) =     12.72271  eV     1   --> A'             
     e(  5 -  5) =     19.65998  eV     1   --> A'             
     e(  6 -  6) =     21.05514  eV     1   --> A''            
     e(  7 -  7) =     21.14562  eV     1   --> A'             
     e(  8 -  8) =     27.20218  eV     1   --> A'             

 **************************************************************************

 **************************************************************************

                    xk=(   0.07500,   0.07500,   0.15000  )

     Band symmetry, C_s (m)     point group:

     e(  1 -  1) =     -7.80236  eV     1   --> A'             
     e(  2 -  2) =     11.78839  eV     1   --> A'             
     e(  3 -  3) =     12.71255  eV     1   --> A''            
     e(  4 -  4) =     13.13466  eV     1   --> A'             
     e(  5 -  5) =     19.39118  eV     1   --> A'             
     e(  6 -  6) =     20.14661  eV     1   --> A''            
     e(  7 -  7) =     20.25666  eV     1   --> A'             
     e(  8 -  8) =     26.97923  eV     1   --> A'             

 **************************************************************************

 **************************************************************************

                    xk=(   0.03750,   0.03750,   0.07500  )

     Band symmetry, C_s (m)     point group:

     e(  1 -  1) =     -8.03677  eV     1   --> A'             
     e(  2 -  2) =     12.99935  eV     1   --> A'             
     e(  3 -  3) =     13.27349  eV     1   --> A''            
     e(  4 -  4) =     13.40645  eV     1   --> A'             
     e(  5 -  5) =     19.21053  eV     1   --> A'             
     e(  6 -  6) =     19.43030  eV     1   --> A''            
     e(  7 -  7) =     19.49379  eV     1   --> A'             
     e(  8 -  8) =     26.78279  eV     1   --> A'             

 **************************************************************************

 **************************************************************************

                    xk=(   0.00000,   0.00000,   0.00000  )

     point group O_h (m-3m) 
     there are 10 classes
     the character table:

       E     8C3   3C2   6C4   6C2'  i     8S6   3s_h  6S4   6s_d 
A_1g   1.00  1.00  1.00  1.00  1.00  1.00  1.00  1.00  1.00  1.00
A_2g   1.00  1.00  1.00 -1.00 -1.00  1.00  1.00  1.00 -1.00 -1.00
E_g    2.00 -1.00  2.00  0.00  0.00  2.00 -1.00  2.00  0.00  0.00
T_1g   3.00  0.00 -1.00  1.00 -1.00  3.00  0.00 -1.00  1.00 -1.00
T_2g   3.00  0.00 -1.00 -1.00  1.00  3.00  0.00 -1.00 -1.00  1.00
A_1u   1.00  1.00  1.00  1.00  1.00 -1.00 -1.00 -1.00 -1.00 -1.00
A_2u   1.00  1.00  1.00 -1.00 -1.00 -1.00 -1.00 -1.00  1.00  1.00
E_u    2.00 -1.00  2.00  0.00  0.00 -2.00  1.00 -2.00  0.00  0.00
T_1u   3.00  0.00 -1.00  1.00 -1.00 -3.00  0.00  1.00 -1.00  1.00
T_2u   3.00  0.00 -1.00 -1.00  1.00 -3.00  0.00  1.00  1.00 -1.00

     the symmetry operations in each class and the name of the first element:

     E        1
                                                                 
     8C3     17   19   20   18   24   21   22   23
                                                                 
     3C2      2    4    3
                                                                 
     6C4      7    8   15   16   12   11
                                                                 
     6C2'     5    6   14   13   10    9
                                                                 
     i       25
                                                                 
     8S6     41   43   44   42   48   45   46   47
                                                                 
     3s_h    26   28   27
                                                                 
     6S4     31   32   39   40   36   35
                                                                 
     6s_d    29   30   38   37   34   33
                                                                 

     Band symmetry, O_h (m-3m)  point group:

     e(  1 -  1) =     -8.11524  eV     1   --> A_1g G_1   G_1+
     e(  2 -  4) =     13.50213  eV     3   --> T_2g G_25' G_5+
     e(  5 -  7) =     19.14548  eV     3   --> T_1u G_15  G_4-
     e(  8 -  8) =     26.70729  eV     1   --> A_2u G_2'  G_2-

 **************************************************************************

 **************************************************************************

                    xk=(   0.05000,   0.05000,   0.05000  )

     point group C_3v (3m)  
     there are  3 classes
     the character table:

       E     2C3   3s_v 
A_1    1.00  1.00  1.00
A_2    1.00  1.00 -1.00
E      2.00 -1.00  0.00

     the symmetry operations in each class and the name of the first element:

     E        1
                                                                 
     2C3      2    3
                                                                 
     3s_v     4    5    6
                                                                 

     Band symmetry, C_3v (3m)   point group:

     e(  1 -  1) =     -8.04549  eV     1   --> A_1  L_1       
     e(  2 -  2) =     13.01135  eV     1   --> A_1  L_1       
     e(  3 -  4) =     13.37807  eV     2   --> E    L_3       
     e(  5 -  6) =     19.30872  eV     2   --> E    L_3       
     e(  7 -  7) =     19.44231  eV     1   --> A_1  L_1       
     e(  8 -  8) =     26.77648  eV     1   --> A_1  L_1       

 **************************************************************************

 **************************************************************************

                    xk=(   0.10000,   0.10000,   0.10000  )

     Band symmetry, C_3v (3m)   point group:

     e(  1 -  1) =     -7.83717  eV     1   --> A_1  L_1       
     e(  2 -  2) =     11.82737  eV     1   --> A_1  L_1       
     e(  3 -  4) =     13.05858  eV     2   --> E    L_3       
     e(  5 -  6) =     19.73929  eV     2   --> E    L_3       
     e(  7 -  7) =     20.08034  eV     1   --> A_1  L_1       
     e(  8 -  8) =     26.98289  eV     1   --> A_1  L_1       

 **************************************************************************

 **************************************************************************

                    xk=(   0.15000,   0.15000,   0.15000  )

     Band symmetry, C_3v (3m)   point group:

     e(  1 -  1) =     -7.49012  eV     1   --> A_1  L_1       
     e(  2 -  2) =     10.27247  eV     1   --> A_1  L_1       
     e(  3 -  4) =     12.63103  eV     2   --> E    L_3       
     e(  5 -  6) =     20.30755  eV     2   --> E    L_3       
     e(  7 -  7) =     20.76826  eV     1   --> A_1  L_1       
     e(  8 -  8) =     27.32146  eV     1   --> A_1  L_1       

 **************************************************************************

 **************************************************************************

                    xk=(   0.20000,   0.20000,   0.20000  )

     Band symmetry, C_3v (3m)   point group:

     e(  1 -  1) =     -7.00653  eV     1   --> A_1  L_1       
     e(  2 -  2) =      8.59070  eV     1   --> A_1  L_1       
     e(  3 -  4) =     12.20051  eV     2   --> E    L_3       
     e(  5 -  6) =     20.89045  eV     2   --> E    L_3       
     e(  7 -  7) =     21.28694  eV     1   --> A_1  L_1       
     e(  8 -  8) =     27.76121  eV     1   --> A_1  L_1       

 **************************************************************************

 **************************************************************************

                    xk=(   0.25000,   0.25000,   0.25000  )

     Band symmetry, C_3v (3m)   point group:

     e(  1 -  1) =     -6.39068  eV     1   --> A_1  L_1       
     e(  2 -  2) =      6.84576  eV     1   --> A_1  L_1       
     e(  3 -  4) =     11.77382  eV     2   --> E    L_3       
     e(  5 -  6) =     21.37394  eV     2   --> E    L_3       
     e(  7 -  7) =     21.64675  eV     1   --> A_1  L_1       
     e(  8 -  8) =     28.22815  eV     1   --> A_1  L_1       

 **************************************************************************

 **************************************************************************

                    xk=(   0.30000,   0.30000,   0.30000  )

     Band symmetry, C_3v (3m)   point group:

     e(  1 -  1) =     -5.65011  eV     1   --> A_1  L_1       
     e(  2 -  2) =      5.15576  eV     1   --> A_1  L_1       
     e(  3 -  4) =     11.38941  eV     2   --> E    L_3       
     e(  5 -  6) =     21.73021  eV     2   --> E    L_3       
     e(  7 -  7) =     21.89035  eV     1   --> A_1  L_1       
     e(  8 -  8) =     28.64411  eV     1   --> A_1  L_1       

 **************************************************************************

 **************************************************************************

                    xk=(   0.35000,   0.35000,   0.35000  )

     Band symmetry, C_3v (3m)   point group:

     e(  1 -  1) =     -4.78687  eV     1   --> A_1  L_1       
     e(  2 -  2) =      3.51532  eV     1   --> A_1  L_1       
     e(  3 -  4) =     11.07794  eV     2   --> E    L_3       
     e(  5 -  6) =     21.92202  eV     2   --> E    L_3       
     e(  7 -  7) =     22.05838  eV     1   --> A_1  L_1       
     e(  8 -  8) =     28.92175  eV     1   --> A_1  L_1       

 **************************************************************************

 **************************************************************************

                    xk=(   0.40000,   0.40000,   0.40000  )

     Band symmetry, C_3v (3m)   point group:

     e(  1 -  1) =     -3.83227  eV     1   --> A_1  L_1       
     e(  2 -  2) =      2.00561  eV     1   --> A_1  L_1       
     e(  3 -  4) =     10.87148  eV     2   --> E    L_3       
     e(  5 -  6) =     21.99691  eV     2   --> E    L_3       
     e(  7 -  7) =     22.17797  eV     1   --> A_1  L_1       
     e(  8 -  8) =     29.14120  eV     1   --> A_1  L_1       

 **************************************************************************

 **************************************************************************

                    xk=(   0.45000,   0.45000,   0.45000  )

     Band symmetry, C_3v (3m)   point group:

     e(  1 -  1) =     -2.87777  eV     1   --> A_1  L_1       
     e(  2 -  2) =      0.68995  eV     1   --> A_1  L_1       
     e(  3 -  4) =     10.73790  eV     2   --> E    L_3       
     e(  5 -  6) =     22.01910  eV     2   --> E    L_3       
     e(  7 -  7) =     22.23445  eV     1   --> A_1  L_1       
     e(  8 -  8) =     29.25311  eV     1   --> A_1  L_1       

 **************************************************************************

 **************************************************************************

                    xk=(   0.50000,   0.50000,   0.50000  )

     zone border point and non-symmorphic group 
     symmetry decomposition not available

 **************************************************************************

 **************************************************************************

                    xk=(   0.47500,   0.47500,   0.47500  )

     point group C_3v (3m)  
     there are  3 classes
     the character table:

       E     2C3   3s_v 
A_1    1.00  1.00  1.00
A_2    1.00  1.00 -1.00
E      2.00 -1.00  0.00

     the symmetry operations in each class and the name of the first element:

     E        1
                                                                 
     2C3      2    3
                                                                 
     3s_v     4    5    6
                                                                 

     Band symmetry, C_3v (3m)   point group:

     e(  1 -  1) =     -2.49167  eV     1   --> A_1  L_1       
     e(  2 -  2) =      0.22453  eV     1   --> A_1  L_1       
     e(  3 -  4) =     10.70544  eV     2   --> E    L_3       
     e(  5 -  6) =     22.02298  eV     2   --> E    L_3       
     e(  7 -  7) =     22.25212  eV     1   --> A_1  L_1       
     e(  8 -  8) =     29.31614  eV     1   --> A_1  L_1       

 **************************************************************************

 **************************************************************************

                    xk=(   0.45000,   0.45000,   0.45000  )

     Band symmetry, C_3v (3m)   point group:

     e(  1 -  1) =     -2.87777  eV     1   --> A_1  L_1       
     e(  2 -  2) =      0.68995  eV     1   --> A_1  L_1       
     e(  3 -  4) =     10.73790  eV     2   --> E    L_3       
     e(  5 -  6) =     22.01910  eV     2   --> E    L_3       
     e(  7 -  7) =     22.23445  eV     1   --> A_1  L_1       
     e(  8 -  8) =     29.25311  eV     1   --> A_1  L_1       

 **************************************************************************

 **************************************************************************

                    xk=(   0.42500,   0.42500,   0.42500  )

     Band symmetry, C_3v (3m)   point group:

     e(  1 -  1) =     -3.33905  eV     1   --> A_1  L_1       
     e(  2 -  2) =      1.31425  eV     1   --> A_1  L_1       
     e(  3 -  4) =     10.79424  eV     2   --> E    L_3       
     e(  5 -  6) =     22.01515  eV     2   --> E    L_3       
     e(  7 -  7) =     22.21199  eV     1   --> A_1  L_1       
     e(  8 -  8) =     29.21299  eV     1   --> A_1  L_1       

 **************************************************************************

 **************************************************************************

                    xk=(   0.40000,   0.40000,   0.40000  )

     Band symmetry, C_3v (3m)   point group:

     e(  1 -  1) =     -3.83227  eV     1   --> A_1  L_1       
     e(  2 -  2) =      2.00561  eV     1   --> A_1  L_1       
     e(  3 -  4) =     10.87148  eV     2   --> E    L_3       
     e(  5 -  6) =     21.99691  eV     2   --> E    L_3       
     e(  7 -  7) =     22.17797  eV     1   --> A_1  L_1       
     e(  8 -  8) =     29.14120  eV     1   --> A_1  L_1       

 **************************************************************************

 **************************************************************************

                    xk=(   0.37500,   0.37500,   0.37500  )

     Band symmetry, C_3v (3m)   point group:

     e(  1 -  1) =     -4.31712  eV     1   --> A_1  L_1       
     e(  2 -  2) =      2.74754  eV     1   --> A_1  L_1       
     e(  3 -  4) =     10.96054  eV     2   --> E    L_3       
     e(  5 -  6) =     21.98883  eV     2   --> E    L_3       
     e(  7 -  7) =     22.13174  eV     1   --> A_1  L_1       
     e(  8 -  8) =     29.05178  eV     1   --> A_1  L_1       

 **************************************************************************

 **************************************************************************

                    xk=(   0.35000,   0.35000,   0.35000  )

     Band symmetry, C_3v (3m)   point group:

     e(  1 -  1) =     -4.78687  eV     1   --> A_1  L_1       
     e(  2 -  2) =      3.51532  eV     1   --> A_1  L_1       
     e(  3 -  4) =     11.07794  eV     2   --> E    L_3       
     e(  5 -  6) =     21.92202  eV     2   --> E    L_3       
     e(  7 -  7) =     22.05838  eV     1   --> A_1  L_1       
     e(  8 -  8) =     28.92175  eV     1   --> A_1  L_1       

 **************************************************************************

 **************************************************************************

                    xk=(   0.32500,   0.32500,   0.32500  )

     Band symmetry, C_3v (3m)   point group:

     e(  1 -  1) =     -5.23236  eV     1   --> A_1  L_1       
     e(  2 -  2) =      4.32117  eV     1   --> A_1  L_1       
     e(  3 -  4) =     11.21780  eV     2   --> E    L_3       
     e(  5 -  6) =     21.84090  eV     2   --> E    L_3       
     e(  7 -  7) =     21.98300  eV     1   --> A_1  L_1       
     e(  8 -  8) =     28.76280  eV     1   --> A_1  L_1       

 **************************************************************************

 **************************************************************************

                    xk=(   0.30000,   0.30000,   0.30000  )

     Band symmetry, C_3v (3m)   point group:

     e(  1 -  1) =     -5.65011  eV     1   --> A_1  L_1       
     e(  2 -  2) =      5.15576  eV     1   --> A_1  L_1       
     e(  3 -  4) =     11.38941  eV     2   --> E    L_3       
     e(  5 -  6) =     21.73021  eV     2   --> E    L_3       
     e(  7 -  7) =     21.89035  eV     1   --> A_1  L_1       
     e(  8 -  8) =     28.64411  eV     1   --> A_1  L_1       

 **************************************************************************

 **************************************************************************

                    xk=(   0.27500,   0.27500,   0.27500  )

     Band symmetry, C_3v (3m)   point group:

     e(  1 -  1) =     -6.03341  eV     1   --> A_1  L_1       
     e(  2 -  2) =      5.98732  eV     1   --> A_1  L_1       
     e(  3 -  4) =     11.58094  eV     2   --> E    L_3       
     e(  5 -  6) =     21.56486  eV     2   --> E    L_3       
     e(  7 -  7) =     21.78190  eV     1   --> A_1  L_1       
     e(  8 -  8) =     28.46125  eV     1   --> A_1  L_1       

 **************************************************************************

 **************************************************************************

                    xk=(   0.25000,   0.25000,   0.25000  )

     Band symmetry, C_3v (3m)   point group:

     e(  1 -  1) =     -6.39068  eV     1   --> A_1  L_1       
     e(  2 -  2) =      6.84576  eV     1   --> A_1  L_1       
     e(  3 -  4) =     11.77382  eV     2   --> E    L_3       
     e(  5 -  6) =     21.37394  eV     2   --> E    L_3       
     e(  7 -  7) =     21.64675  eV     1   --> A_1  L_1       
     e(  8 -  8) =     28.22815  eV     1   --> A_1  L_1       

 **************************************************************************

     BANDS        :      0.36s CPU      0.43s WALL


   This run was terminated on:  22:56:45   5Oct2024            

=------------------------------------------------------------------------------=
   JOB DONE.
=------------------------------------------------------------------------------=
