
     Program BANDS v.7.3.1 starts on  5Oct2024 at 23:58:11 

     This program is part of the open-source Quantum ESPRESSO suite
     for quantum simulation of materials; please cite
         "P. Giannozzi et al., J. Phys.:Condens. Matter 21 395502 (2009);
         "P. Giannozzi et al., J. Phys.:Condens. Matter 29 465901 (2017);
         "P. Giannozzi et al., J. Chem. Phys. 152 154105 (2020);
          URL http://www.quantum-espresso.org", 
     in publications or presentations arising from this work. More details at
     http://www.quantum-espresso.org/quote

     Parallel version (MPI & OpenMP), running on       2 processor cores
     Number of MPI processes:                 2
     Threads/MPI process:                     1

     MPI processes distributed on     1 nodes
     R & G space division:  proc/nbgrp/npool/nimage =       2
     508611 MiB available memory on the printing compute node when the environment starts


     Reading xml data from directory:

     ./diamond.save/

     IMPORTANT: XC functional enforced from input :
     Exchange-correlation= PBE
                           (   1   4   3   4   0   0   0)
     Any further DFT definition will be discarded
     Please, verify this is what you really want


     Parallelization info
     --------------------
     sticks:   dense  smooth     PW     G-vecs:    dense   smooth      PW
     Min         156     156     48                 1847     1847     322
     Max         157     157     49                 1848     1848     323
     Sum         313     313     97                 3695     3695     645

     Using Slab Decomposition

     Reading collected, re-writing distributed wavefunctions
     high-symmetry point:  0.0000 0.0000 0.0000   x coordinate   0.0000
     high-symmetry point:  0.5000 0.0000 0.5000   x coordinate   0.7071
     high-symmetry point:  0.3750 0.3750 0.7500   x coordinate   1.1748
     high-symmetry point:  0.0000 0.0000 0.0000   x coordinate   2.0934
     high-symmetry point:  0.5000 0.5000 0.5000   x coordinate   2.9594
     high-symmetry point:  0.2500 0.2500 0.2500   x coordinate   3.3924

     Plottable bands (eV) written to file bands.dat.gnu
     Bands written to file bands.dat

 **************************************************************************

                    xk=(   0.00000,   0.00000,   0.00000  )

     point group O_h (m-3m) 
     there are 10 classes
     the character table:

       E     8C3   3C2   6C4   6C2'  i     8S6   3s_h  6S4   6s_d 
A_1g   1.00  1.00  1.00  1.00  1.00  1.00  1.00  1.00  1.00  1.00
A_2g   1.00  1.00  1.00 -1.00 -1.00  1.00  1.00  1.00 -1.00 -1.00
E_g    2.00 -1.00  2.00  0.00  0.00  2.00 -1.00  2.00  0.00  0.00
T_1g   3.00  0.00 -1.00  1.00 -1.00  3.00  0.00 -1.00  1.00 -1.00
T_2g   3.00  0.00 -1.00 -1.00  1.00  3.00  0.00 -1.00 -1.00  1.00
A_1u   1.00  1.00  1.00  1.00  1.00 -1.00 -1.00 -1.00 -1.00 -1.00
A_2u   1.00  1.00  1.00 -1.00 -1.00 -1.00 -1.00 -1.00  1.00  1.00
E_u    2.00 -1.00  2.00  0.00  0.00 -2.00  1.00 -2.00  0.00  0.00
T_1u   3.00  0.00 -1.00  1.00 -1.00 -3.00  0.00  1.00 -1.00  1.00
T_2u   3.00  0.00 -1.00 -1.00  1.00 -3.00  0.00  1.00  1.00 -1.00

     the symmetry operations in each class and the name of the first element:

     E        1
                                                                 
     8C3     17   19   20   18   24   21   22   23
                                                                 
     3C2      2    4    3
                                                                 
     6C4      7    8   15   16   12   11
                                                                 
     6C2'     5    6   14   13   10    9
                                                                 
     i       25
                                                                 
     8S6     41   43   44   42   48   45   46   47
                                                                 
     3s_h    26   28   27
                                                                 
     6S4     31   32   39   40   36   35
                                                                 
     6s_d    29   30   38   37   34   33
                                                                 

     Band symmetry, O_h (m-3m)  point group:

     e(  1 -  1) =     -8.12138  eV     1   --> A_1g G_1   G_1+
     e(  2 -  4) =     13.39144  eV     3   --> T_2g G_25' G_5+
     e(  5 -  7) =     18.99431  eV     3   --> T_1u G_15  G_4-
     e(  8 -  8) =     26.70249  eV     1   --> A_2u G_2'  G_2-

 **************************************************************************

 **************************************************************************

                    xk=(   0.05000,   0.00000,   0.05000  )

     point group C_2v (mm2) 
     there are  4 classes
     the character table:

       E     C2    s_v   s_v' 
A_1    1.00  1.00  1.00  1.00
A_2    1.00  1.00 -1.00 -1.00
B_1    1.00 -1.00  1.00 -1.00
B_2    1.00 -1.00 -1.00  1.00

     the symmetry operations in each class and the name of the first element:

     E        1
                                                                 
     C2       2
                                                                 
     s_v      3
                                                                 
     s_v'     4
                                                                 

     Band symmetry, C_2v (mm2)  point group:

     e(  1 -  1) =     -8.07515  eV     1   --> A_1  D_1  S_1  
     e(  2 -  2) =     13.11597  eV     1   --> B_2  D_4  S_4  
     e(  3 -  3) =     13.19578  eV     1   --> A_1  D_1  S_1  
     e(  4 -  4) =     13.36318  eV     1   --> A_2  D_2  S_2  
     e(  5 -  5) =     19.04147  eV     1   --> B_1  D_3  S_3  
     e(  6 -  6) =     19.14606  eV     1   --> A_1  D_1  S_1  
     e(  7 -  7) =     19.22217  eV     1   --> B_2  D_4  S_4  
     e(  8 -  8) =     26.74310  eV     1   --> B_2  D_4  S_4  

 **************************************************************************

 **************************************************************************

                    xk=(   0.10000,   0.00000,   0.10000  )

     Band symmetry, C_2v (mm2)  point group:

     e(  1 -  1) =     -7.93697  eV     1   --> A_1  D_1  S_1  
     e(  2 -  2) =     12.39677  eV     1   --> B_2  D_4  S_4  
     e(  3 -  3) =     12.66356  eV     1   --> A_1  D_1  S_1  
     e(  4 -  4) =     13.27315  eV     1   --> A_2  D_2  S_2  
     e(  5 -  5) =     19.18179  eV     1   --> B_1  D_3  S_3  
     e(  6 -  6) =     19.55419  eV     1   --> A_1  D_1  S_1  
     e(  7 -  7) =     19.77601  eV     1   --> B_2  D_4  S_4  
     e(  8 -  8) =     26.84922  eV     1   --> B_2  D_4  S_4  

 **************************************************************************

 **************************************************************************

                    xk=(   0.15000,   0.00000,   0.15000  )

     Band symmetry, C_2v (mm2)  point group:

     e(  1 -  1) =     -7.70684  eV     1   --> A_1  D_1  S_1  
     e(  2 -  2) =     11.46467  eV     1   --> B_2  D_4  S_4  
     e(  3 -  3) =     11.91798  eV     1   --> A_1  D_1  S_1  
     e(  4 -  4) =     13.12015  eV     1   --> A_2  D_2  S_2  
     e(  5 -  5) =     19.41110  eV     1   --> B_1  D_3  S_3  
     e(  6 -  6) =     20.11355  eV     1   --> A_1  D_1  S_1  
     e(  7 -  7) =     20.44770  eV     1   --> B_2  D_4  S_4  
     e(  8 -  8) =     26.99341  eV     1   --> B_2  D_4  S_4  

 **************************************************************************

 **************************************************************************

                    xk=(   0.20000,   0.00000,   0.20000  )

     Band symmetry, C_2v (mm2)  point group:

     e(  1 -  1) =     -7.38559  eV     1   --> A_1  D_1  S_1  
     e(  2 -  2) =     10.43399  eV     1   --> B_2  D_4  S_4  
     e(  3 -  3) =     11.04464  eV     1   --> A_1  D_1  S_1  
     e(  4 -  4) =     12.89873  eV     1   --> A_2  D_2  S_2  
     e(  5 -  5) =     19.73767  eV     1   --> B_1  D_3  S_3  
     e(  6 -  6) =     20.76270  eV     1   --> A_1  D_1  S_1  
     e(  7 -  7) =     21.07481  eV     1   --> B_2  D_4  S_4  
     e(  8 -  8) =     27.12007  eV     1   --> B_2  D_4  S_4  

 **************************************************************************

 **************************************************************************

                    xk=(   0.25000,   0.00000,   0.25000  )

     Band symmetry, C_2v (mm2)  point group:

     e(  1 -  1) =     -6.97402  eV     1   --> A_1  D_1  S_1  
     e(  2 -  2) =      9.38072  eV     1   --> B_2  D_4  S_4  
     e(  3 -  3) =     10.11970  eV     1   --> A_1  D_1  S_1  
     e(  4 -  4) =     12.61587  eV     1   --> A_2  D_2  S_2  
     e(  5 -  5) =     20.15133  eV     1   --> B_1  D_3  S_3  
     e(  6 -  6) =     21.47181  eV     1   --> A_1  D_1  S_1  
     e(  7 -  7) =     21.58140  eV     1   --> B_2  D_4  S_4  
     e(  8 -  8) =     27.17622  eV     1   --> B_2  D_4  S_4  

 **************************************************************************

 **************************************************************************

                    xk=(   0.30000,   0.00000,   0.30000  )

     Band symmetry, C_2v (mm2)  point group:

     e(  1 -  1) =     -6.47381  eV     1   --> A_1  D_1  S_1  
     e(  2 -  2) =      8.34409  eV     1   --> B_2  D_4  S_4  
     e(  3 -  3) =      9.17946  eV     1   --> A_1  D_1  S_1  
     e(  4 -  4) =     12.26515  eV     1   --> A_2  D_2  S_2  
     e(  5 -  5) =     20.65148  eV     1   --> B_1  D_3  S_3  
     e(  6 -  6) =     21.92120  eV     1   --> B_2  D_4  S_4  
     e(  7 -  7) =     22.23179  eV     1   --> A_1  D_1  S_1  
     e(  8 -  8) =     27.14907  eV     1   --> B_2  D_4  S_4  

 **************************************************************************

 **************************************************************************

                    xk=(   0.35000,   0.00000,   0.35000  )

     Band symmetry, C_2v (mm2)  point group:

     e(  1 -  1) =     -5.88716  eV     1   --> A_1  D_1  S_1  
     e(  2 -  2) =      7.34221  eV     1   --> B_2  D_4  S_4  
     e(  3 -  3) =      8.25448  eV     1   --> A_1  D_1  S_1  
     e(  4 -  4) =     11.85142  eV     1   --> A_2  D_2  S_2  
     e(  5 -  5) =     21.25566  eV     1   --> B_1  D_3  S_3  
     e(  6 -  6) =     22.06787  eV     1   --> B_2  D_4  S_4  
     e(  7 -  7) =     23.04497  eV     1   --> A_1  D_1  S_1  
     e(  8 -  8) =     27.08460  eV     1   --> B_2  D_4  S_4  

 **************************************************************************

 **************************************************************************

                    xk=(   0.40000,   0.00000,   0.40000  )

     Band symmetry, C_2v (mm2)  point group:

     e(  1 -  1) =     -5.21747  eV     1   --> A_1  D_1  S_1  
     e(  2 -  2) =      6.38953  eV     1   --> B_2  D_4  S_4  
     e(  3 -  3) =      7.36534  eV     1   --> A_1  D_1  S_1  
     e(  4 -  4) =     11.38759  eV     1   --> A_2  D_2  S_2  
     e(  5 -  5) =     21.91886  eV     1   --> B_1  D_3  S_3  
     e(  6 -  6) =     21.99562  eV     1   --> B_2  D_4  S_4  
     e(  7 -  7) =     23.90735  eV     1   --> A_1  D_1  S_1  
     e(  8 -  8) =     27.06595  eV     1   --> B_2  D_4  S_4  

 **************************************************************************

 **************************************************************************

                    xk=(   0.45000,   0.00000,   0.45000  )

     Band symmetry, C_2v (mm2)  point group:

     e(  1 -  1) =     -4.47028  eV     1   --> A_1  D_1  S_1  
     e(  2 -  2) =      5.49569  eV     1   --> B_2  D_4  S_4  
     e(  3 -  3) =      6.52796  eV     1   --> A_1  D_1  S_1  
     e(  4 -  4) =     10.88769  eV     1   --> A_2  D_2  S_2  
     e(  5 -  5) =     21.73713  eV     1   --> B_2  D_4  S_4  
     e(  6 -  6) =     22.64448  eV     1   --> B_1  D_3  S_3  
     e(  7 -  7) =     24.82452  eV     1   --> A_1  D_1  S_1  
     e(  8 -  8) =     27.14701  eV     1   --> B_2  D_4  S_4  

 **************************************************************************

 **************************************************************************

                    xk=(   0.50000,   0.00000,   0.50000  )

     Band symmetry, C_2v (mm2)  point group:

     e(  1 -  1) =     -3.65256  eV     1   --> A_1  D_1  S_1  
     e(  2 -  2) =      4.66608  eV     1   --> B_2  D_4  S_4  
     e(  3 -  3) =      5.75887  eV     1   --> A_1  D_1  S_1  
     e(  4 -  4) =     10.36720  eV     1   --> A_2  D_2  S_2  
     e(  5 -  5) =     21.34839  eV     1   --> B_2  D_4  S_4  
     e(  6 -  6) =     23.44359  eV     1   --> B_1  D_3  S_3  
     e(  7 -  7) =     25.79064  eV     1   --> A_1  D_1  S_1  
     e(  8 -  8) =     27.33426  eV     1   --> B_2  D_4  S_4  

 **************************************************************************

 **************************************************************************

                    xk=(   0.48750,   0.03750,   0.52500  )

     point group C_1 (1)    
     there are  1 classes
     the character table:

       E    
A      1.00

     the symmetry operations in each class and the name of the first element:

     E        1
                                                                 

     Band symmetry, C_1 (1)     point group:

     e(  1 -  1) =     -3.52948  eV     1   --> A              
     e(  2 -  2) =      4.34504  eV     1   --> A              
     e(  3 -  3) =      5.89827  eV     1   --> A              
     e(  4 -  4) =     10.26868  eV     1   --> A              
     e(  5 -  5) =     21.33240  eV     1   --> A              
     e(  6 -  6) =     23.45307  eV     1   --> A              
     e(  7 -  7) =     25.82420  eV     1   --> A              
     e(  8 -  8) =     27.41422  eV     1   --> A              

 **************************************************************************

 **************************************************************************

                    xk=(   0.47500,   0.07500,   0.55000  )

     Band symmetry, C_1 (1)     point group:

     e(  1 -  1) =     -3.37069  eV     1   --> A              
     e(  2 -  2) =      3.82133  eV     1   --> A              
     e(  3 -  3) =      6.26923  eV     1   --> A              
     e(  4 -  4) =     10.12460  eV     1   --> A              
     e(  5 -  5) =     21.41107  eV     1   --> A              
     e(  6 -  6) =     23.30386  eV     1   --> A              
     e(  7 -  7) =     25.76813  eV     1   --> A              
     e(  8 -  8) =     27.56846  eV     1   --> A              

 **************************************************************************

 **************************************************************************

                    xk=(   0.46250,   0.11250,   0.57500  )

     Band symmetry, C_1 (1)     point group:

     e(  1 -  1) =     -3.17849  eV     1   --> A              
     e(  2 -  2) =      3.26689  eV     1   --> A              
     e(  3 -  3) =      6.69368  eV     1   --> A              
     e(  4 -  4) =      9.93759  eV     1   --> A              
     e(  5 -  5) =     21.56378  eV     1   --> A              
     e(  6 -  6) =     23.01852  eV     1   --> A              
     e(  7 -  7) =     25.69738  eV     1   --> A              
     e(  8 -  8) =     27.70864  eV     1   --> A              

 **************************************************************************

 **************************************************************************

                    xk=(   0.45000,   0.15000,   0.60000  )

     Band symmetry, C_1 (1)     point group:

     e(  1 -  1) =     -2.95569  eV     1   --> A              
     e(  2 -  2) =      2.72285  eV     1   --> A              
     e(  3 -  3) =      7.12127  eV     1   --> A              
     e(  4 -  4) =      9.72119  eV     1   --> A              
     e(  5 -  5) =     21.73727  eV     1   --> A              
     e(  6 -  6) =     22.69184  eV     1   --> A              
     e(  7 -  7) =     25.65047  eV     1   --> A              
     e(  8 -  8) =     27.79444  eV     1   --> A              

 **************************************************************************

 **************************************************************************

                    xk=(   0.43750,   0.18750,   0.62500  )

     Band symmetry, C_1 (1)     point group:

     e(  1 -  1) =     -2.70609  eV     1   --> A              
     e(  2 -  2) =      2.21016  eV     1   --> A              
     e(  3 -  3) =      7.51576  eV     1   --> A              
     e(  4 -  4) =      9.50222  eV     1   --> A              
     e(  5 -  5) =     21.73216  eV     1   --> A              
     e(  6 -  6) =     22.57855  eV     1   --> A              
     e(  7 -  7) =     25.62186  eV     1   --> A              
     e(  8 -  8) =     27.84564  eV     1   --> A              

 **************************************************************************

 **************************************************************************

                    xk=(   0.42500,   0.22500,   0.65000  )

     Band symmetry, C_1 (1)     point group:

     e(  1 -  1) =     -2.43719  eV     1   --> A              
     e(  2 -  2) =      1.73993  eV     1   --> A              
     e(  3 -  3) =      7.82466  eV     1   --> A              
     e(  4 -  4) =      9.31414  eV     1   --> A              
     e(  5 -  5) =     21.43017  eV     1   --> A              
     e(  6 -  6) =     22.81961  eV     1   --> A              
     e(  7 -  7) =     25.56827  eV     1   --> A              
     e(  8 -  8) =     27.87867  eV     1   --> A              

 **************************************************************************

 **************************************************************************

                    xk=(   0.41250,   0.26250,   0.67500  )

     Band symmetry, C_1 (1)     point group:

     e(  1 -  1) =     -2.16103  eV     1   --> A              
     e(  2 -  2) =      1.33026  eV     1   --> A              
     e(  3 -  3) =      7.97777  eV     1   --> A              
     e(  4 -  4) =      9.22593  eV     1   --> A              
     e(  5 -  5) =     21.07758  eV     1   --> A              
     e(  6 -  6) =     23.20950  eV     1   --> A              
     e(  7 -  7) =     25.47333  eV     1   --> A              
     e(  8 -  8) =     27.94201  eV     1   --> A              

 **************************************************************************

 **************************************************************************

                    xk=(   0.40000,   0.30000,   0.70000  )

     Band symmetry, C_1 (1)     point group:

     e(  1 -  1) =     -1.89993  eV     1   --> A              
     e(  2 -  2) =      1.00203  eV     1   --> A              
     e(  3 -  3) =      7.93032  eV     1   --> A              
     e(  4 -  4) =      9.26899  eV     1   --> A              
     e(  5 -  5) =     20.78997  eV     1   --> A              
     e(  6 -  6) =     23.64631  eV     1   --> A              
     e(  7 -  7) =     25.32873  eV     1   --> A              
     e(  8 -  8) =     28.04643  eV     1   --> A              

 **************************************************************************

 **************************************************************************

                    xk=(   0.38750,   0.33750,   0.72500  )

     Band symmetry, C_1 (1)     point group:

     e(  1 -  1) =     -1.69102  eV     1   --> A              
     e(  2 -  2) =      0.79535  eV     1   --> A              
     e(  3 -  3) =      7.74500  eV     1   --> A              
     e(  4 -  4) =      9.36830  eV     1   --> A              
     e(  5 -  5) =     20.61333  eV     1   --> A              
     e(  6 -  6) =     24.06354  eV     1   --> A              
     e(  7 -  7) =     25.16718  eV     1   --> A              
     e(  8 -  8) =     28.20311  eV     1   --> A              

 **************************************************************************

 **************************************************************************

                    xk=(   0.37500,   0.37500,   0.75000  )

     point group C_s (m)    
     there are  2 classes
     the character table:

       E     s    
A'     1.00  1.00
A''    1.00 -1.00

     the symmetry operations in each class and the name of the first element:

     E        1
                                                                 
     s        2
                                                                 

     Band symmetry, C_s (m)     point group:

     e(  1 -  1) =     -1.58260  eV     1   --> A'             
     e(  2 -  2) =      0.75589  eV     1   --> A'             
     e(  3 -  3) =      7.50004  eV     1   --> A'             
     e(  4 -  4) =      9.43685  eV     1   --> A''            
     e(  5 -  5) =     20.57161  eV     1   --> A'             
     e(  6 -  6) =     24.27555  eV     1   --> A''            
     e(  7 -  7) =     25.14796  eV     1   --> A'             
     e(  8 -  8) =     28.38553  eV     1   --> A'             

 **************************************************************************

 **************************************************************************

                    xk=(   0.33750,   0.33750,   0.67500  )

     Band symmetry, C_s (m)     point group:

     e(  1 -  1) =     -2.25243  eV     1   --> A'             
     e(  2 -  2) =      1.23923  eV     1   --> A'             
     e(  3 -  3) =      8.29419  eV     1   --> A'             
     e(  4 -  4) =      9.39770  eV     1   --> A''            
     e(  5 -  5) =     20.51143  eV     1   --> A'             
     e(  6 -  6) =     24.17134  eV     1   --> A''            
     e(  7 -  7) =     24.68828  eV     1   --> A'             
     e(  8 -  8) =     27.77740  eV     1   --> A'             

 **************************************************************************

 **************************************************************************

                    xk=(   0.30000,   0.30000,   0.60000  )

     Band symmetry, C_s (m)     point group:

     e(  1 -  1) =     -3.33317  eV     1   --> A'             
     e(  2 -  2) =      2.38391  eV     1   --> A'             
     e(  3 -  3) =      9.10797  eV     1   --> A'             
     e(  4 -  4) =      9.49846  eV     1   --> A''            
     e(  5 -  5) =     20.49043  eV     1   --> A'             
     e(  6 -  6) =     23.96591  eV     1   --> A''            
     e(  7 -  7) =     24.19914  eV     1   --> A'             
     e(  8 -  8) =     27.25645  eV     1   --> A'             

 **************************************************************************

 **************************************************************************

                    xk=(   0.26250,   0.26250,   0.52500  )

     Band symmetry, C_s (m)     point group:

     e(  1 -  1) =     -4.40012  eV     1   --> A'             
     e(  2 -  2) =      3.75924  eV     1   --> A'             
     e(  3 -  3) =      9.73568  eV     1   --> A''            
     e(  4 -  4) =      9.91498  eV     1   --> A'             
     e(  5 -  5) =     20.44724  eV     1   --> A'             
     e(  6 -  6) =     23.64632  eV     1   --> A''            
     e(  7 -  7) =     23.67171  eV     1   --> A'             
     e(  8 -  8) =     26.94828  eV     1   --> A'             

 **************************************************************************

 **************************************************************************

                    xk=(   0.22500,   0.22500,   0.45000  )

     Band symmetry, C_s (m)     point group:

     e(  1 -  1) =     -5.36259  eV     1   --> A'             
     e(  2 -  2) =      5.27030  eV     1   --> A'             
     e(  3 -  3) =     10.11043  eV     1   --> A''            
     e(  4 -  4) =     10.68804  eV     1   --> A'             
     e(  5 -  5) =     20.32620  eV     1   --> A'             
     e(  6 -  6) =     23.09451  eV     1   --> A'             
     e(  7 -  7) =     23.19602  eV     1   --> A''            
     e(  8 -  8) =     26.90642  eV     1   --> A'             

 **************************************************************************

 **************************************************************************

                    xk=(   0.18750,   0.18750,   0.37500  )

     Band symmetry, C_s (m)     point group:

     e(  1 -  1) =     -6.19403  eV     1   --> A'             
     e(  2 -  2) =      6.86768  eV     1   --> A'             
     e(  3 -  3) =     10.60968  eV     1   --> A''            
     e(  4 -  4) =     11.40013  eV     1   --> A'             
     e(  5 -  5) =     20.10597  eV     1   --> A'             
     e(  6 -  6) =     22.46079  eV     1   --> A'             
     e(  7 -  7) =     22.57239  eV     1   --> A''            
     e(  8 -  8) =     27.04070  eV     1   --> A'             

 **************************************************************************

 **************************************************************************

                    xk=(   0.15000,   0.15000,   0.30000  )

     Band symmetry, C_s (m)     point group:

     e(  1 -  1) =     -6.88285  eV     1   --> A'             
     e(  2 -  2) =      8.51428  eV     1   --> A'             
     e(  3 -  3) =     11.21809  eV     1   --> A''            
     e(  4 -  4) =     12.03905  eV     1   --> A'             
     e(  5 -  5) =     19.81747  eV     1   --> A'             
     e(  6 -  6) =     21.75585  eV     1   --> A'             
     e(  7 -  7) =     21.78200  eV     1   --> A''            
     e(  8 -  8) =     27.15921  eV     1   --> A'             

 **************************************************************************

 **************************************************************************

                    xk=(   0.11250,   0.11250,   0.22500  )

     Band symmetry, C_s (m)     point group:

     e(  1 -  1) =     -7.42279  eV     1   --> A'             
     e(  2 -  2) =     10.14972  eV     1   --> A'             
     e(  3 -  3) =     11.90611  eV     1   --> A''            
     e(  4 -  4) =     12.58373  eV     1   --> A'             
     e(  5 -  5) =     19.50747  eV     1   --> A'             
     e(  6 -  6) =     20.88430  eV     1   --> A''            
     e(  7 -  7) =     20.96300  eV     1   --> A'             
     e(  8 -  8) =     27.10965  eV     1   --> A'             

 **************************************************************************

 **************************************************************************

                    xk=(   0.07500,   0.07500,   0.15000  )

     Band symmetry, C_s (m)     point group:

     e(  1 -  1) =     -7.81034  eV     1   --> A'             
     e(  2 -  2) =     11.67259  eV     1   --> A'             
     e(  3 -  3) =     12.59533  eV     1   --> A''            
     e(  4 -  4) =     13.01419  eV     1   --> A'             
     e(  5 -  5) =     19.24961  eV     1   --> A'             
     e(  6 -  6) =     19.99215  eV     1   --> A''            
     e(  7 -  7) =     20.12148  eV     1   --> A'             
     e(  8 -  8) =     26.93456  eV     1   --> A'             

 **************************************************************************

 **************************************************************************

                    xk=(   0.03750,   0.03750,   0.07500  )

     Band symmetry, C_s (m)     point group:

     e(  1 -  1) =     -8.04338  eV     1   --> A'             
     e(  2 -  2) =     12.89254  eV     1   --> A'             
     e(  3 -  3) =     13.16290  eV     1   --> A''            
     e(  4 -  4) =     13.29615  eV     1   --> A'             
     e(  5 -  5) =     19.06065  eV     1   --> A'             
     e(  6 -  6) =     19.27787  eV     1   --> A''            
     e(  7 -  7) =     19.34455  eV     1   --> A'             
     e(  8 -  8) =     26.77008  eV     1   --> A'             

 **************************************************************************

 **************************************************************************

                    xk=(   0.00000,   0.00000,   0.00000  )

     point group O_h (m-3m) 
     there are 10 classes
     the character table:

       E     8C3   3C2   6C4   6C2'  i     8S6   3s_h  6S4   6s_d 
A_1g   1.00  1.00  1.00  1.00  1.00  1.00  1.00  1.00  1.00  1.00
A_2g   1.00  1.00  1.00 -1.00 -1.00  1.00  1.00  1.00 -1.00 -1.00
E_g    2.00 -1.00  2.00  0.00  0.00  2.00 -1.00  2.00  0.00  0.00
T_1g   3.00  0.00 -1.00  1.00 -1.00  3.00  0.00 -1.00  1.00 -1.00
T_2g   3.00  0.00 -1.00 -1.00  1.00  3.00  0.00 -1.00 -1.00  1.00
A_1u   1.00  1.00  1.00  1.00  1.00 -1.00 -1.00 -1.00 -1.00 -1.00
A_2u   1.00  1.00  1.00 -1.00 -1.00 -1.00 -1.00 -1.00  1.00  1.00
E_u    2.00 -1.00  2.00  0.00  0.00 -2.00  1.00 -2.00  0.00  0.00
T_1u   3.00  0.00 -1.00  1.00 -1.00 -3.00  0.00  1.00 -1.00  1.00
T_2u   3.00  0.00 -1.00 -1.00  1.00 -3.00  0.00  1.00  1.00 -1.00

     the symmetry operations in each class and the name of the first element:

     E        1
                                                                 
     8C3     17   19   20   18   24   21   22   23
                                                                 
     3C2      2    4    3
                                                                 
     6C4      7    8   15   16   12   11
                                                                 
     6C2'     5    6   14   13   10    9
                                                                 
     i       25
                                                                 
     8S6     41   43   44   42   48   45   46   47
                                                                 
     3s_h    26   28   27
                                                                 
     6S4     31   32   39   40   36   35
                                                                 
     6s_d    29   30   38   37   34   33
                                                                 

     Band symmetry, O_h (m-3m)  point group:

     e(  1 -  1) =     -8.12138  eV     1   --> A_1g G_1   G_1+
     e(  2 -  4) =     13.39144  eV     3   --> T_2g G_25' G_5+
     e(  5 -  7) =     18.99431  eV     3   --> T_1u G_15  G_4-
     e(  8 -  8) =     26.70249  eV     1   --> A_2u G_2'  G_2-

 **************************************************************************

 **************************************************************************

                    xk=(   0.05000,   0.05000,   0.05000  )

     point group C_3v (3m)  
     there are  3 classes
     the character table:

       E     2C3   3s_v 
A_1    1.00  1.00  1.00
A_2    1.00  1.00 -1.00
E      2.00 -1.00  0.00

     the symmetry operations in each class and the name of the first element:

     E        1
                                                                 
     2C3      2    3
                                                                 
     3s_v     4    5    6
                                                                 

     Band symmetry, C_3v (3m)   point group:

     e(  1 -  1) =     -8.05204  eV     1   --> A_1  L_1       
     e(  2 -  2) =     12.90456  eV     1   --> A_1  L_1       
     e(  3 -  4) =     13.26736  eV     2   --> E    L_3       
     e(  5 -  6) =     19.15668  eV     2   --> E    L_3       
     e(  7 -  7) =     19.29472  eV     1   --> A_1  L_1       
     e(  8 -  8) =     26.76459  eV     1   --> A_1  L_1       

 **************************************************************************

 **************************************************************************

                    xk=(   0.10000,   0.10000,   0.10000  )

     Band symmetry, C_3v (3m)   point group:

     e(  1 -  1) =     -7.84484  eV     1   --> A_1  L_1       
     e(  2 -  2) =     11.69689  eV     1   --> A_1  L_1       
     e(  3 -  4) =     12.93711  eV     2   --> E    L_3       
     e(  5 -  6) =     19.58793  eV     2   --> E    L_3       
     e(  7 -  7) =     19.94629  eV     1   --> A_1  L_1       
     e(  8 -  8) =     26.94182  eV     1   --> A_1  L_1       

 **************************************************************************

 **************************************************************************

                    xk=(   0.15000,   0.15000,   0.15000  )

     Band symmetry, C_3v (3m)   point group:

     e(  1 -  1) =     -7.50013  eV     1   --> A_1  L_1       
     e(  2 -  2) =     10.15979  eV     1   --> A_1  L_1       
     e(  3 -  4) =     12.50812  eV     2   --> E    L_3       
     e(  5 -  6) =     20.14702  eV     2   --> E    L_3       
     e(  7 -  7) =     20.60426  eV     1   --> A_1  L_1       
     e(  8 -  8) =     27.23275  eV     1   --> A_1  L_1       

 **************************************************************************

 **************************************************************************

                    xk=(   0.20000,   0.20000,   0.20000  )

     Band symmetry, C_3v (3m)   point group:

     e(  1 -  1) =     -7.01981  eV     1   --> A_1  L_1       
     e(  2 -  2) =      8.48479  eV     1   --> A_1  L_1       
     e(  3 -  4) =     12.04890  eV     2   --> E    L_3       
     e(  5 -  6) =     20.72701  eV     2   --> E    L_3       
     e(  7 -  7) =     21.14397  eV     1   --> A_1  L_1       
     e(  8 -  8) =     27.60913  eV     1   --> A_1  L_1       

 **************************************************************************

 **************************************************************************

                    xk=(   0.25000,   0.25000,   0.25000  )

     Band symmetry, C_3v (3m)   point group:

     e(  1 -  1) =     -6.40657  eV     1   --> A_1  L_1       
     e(  2 -  2) =      6.77157  eV     1   --> A_1  L_1       
     e(  3 -  4) =     11.62403  eV     2   --> E    L_3       
     e(  5 -  6) =     21.21030  eV     2   --> E    L_3       
     e(  7 -  7) =     21.54407  eV     1   --> A_1  L_1       
     e(  8 -  8) =     28.02927  eV     1   --> A_1  L_1       

 **************************************************************************

 **************************************************************************

                    xk=(   0.30000,   0.30000,   0.30000  )

     Band symmetry, C_3v (3m)   point group:

     e(  1 -  1) =     -5.66583  eV     1   --> A_1  L_1       
     e(  2 -  2) =      5.08576  eV     1   --> A_1  L_1       
     e(  3 -  4) =     11.25520  eV     2   --> E    L_3       
     e(  5 -  6) =     21.53067  eV     2   --> E    L_3       
     e(  7 -  7) =     21.83598  eV     1   --> A_1  L_1       
     e(  8 -  8) =     28.45010  eV     1   --> A_1  L_1       

 **************************************************************************

 **************************************************************************

                    xk=(   0.35000,   0.35000,   0.35000  )

     Band symmetry, C_3v (3m)   point group:

     e(  1 -  1) =     -4.80689  eV     1   --> A_1  L_1       
     e(  2 -  2) =      3.46664  eV     1   --> A_1  L_1       
     e(  3 -  4) =     10.95851  eV     2   --> E    L_3       
     e(  5 -  6) =     21.73552  eV     2   --> E    L_3       
     e(  7 -  7) =     22.02443  eV     1   --> A_1  L_1       
     e(  8 -  8) =     28.78291  eV     1   --> A_1  L_1       

 **************************************************************************

 **************************************************************************

                    xk=(   0.40000,   0.40000,   0.40000  )

     Band symmetry, C_3v (3m)   point group:

     e(  1 -  1) =     -3.85471  eV     1   --> A_1  L_1       
     e(  2 -  2) =      1.95251  eV     1   --> A_1  L_1       
     e(  3 -  4) =     10.74078  eV     2   --> E    L_3       
     e(  5 -  6) =     21.82790  eV     2   --> E    L_3       
     e(  7 -  7) =     22.14715  eV     1   --> A_1  L_1       
     e(  8 -  8) =     28.97602  eV     1   --> A_1  L_1       

 **************************************************************************

 **************************************************************************

                    xk=(   0.45000,   0.45000,   0.45000  )

     Band symmetry, C_3v (3m)   point group:

     e(  1 -  1) =     -2.89244  eV     1   --> A_1  L_1       
     e(  2 -  2) =      0.64837  eV     1   --> A_1  L_1       
     e(  3 -  4) =     10.61410  eV     2   --> E    L_3       
     e(  5 -  6) =     21.85784  eV     2   --> E    L_3       
     e(  7 -  7) =     22.21801  eV     1   --> A_1  L_1       
     e(  8 -  8) =     29.09548  eV     1   --> A_1  L_1       

 **************************************************************************

 **************************************************************************

                    xk=(   0.50000,   0.50000,   0.50000  )

     zone border point and non-symmorphic group 
     symmetry decomposition not available

 **************************************************************************

 **************************************************************************

                    xk=(   0.47500,   0.47500,   0.47500  )

     point group C_3v (3m)  
     there are  3 classes
     the character table:

       E     2C3   3s_v 
A_1    1.00  1.00  1.00
A_2    1.00  1.00 -1.00
E      2.00 -1.00  0.00

     the symmetry operations in each class and the name of the first element:

     E        1
                                                                 
     2C3      2    3
                                                                 
     3s_v     4    5    6
                                                                 

     Band symmetry, C_3v (3m)   point group:

     e(  1 -  1) =     -2.50668  eV     1   --> A_1  L_1       
     e(  2 -  2) =      0.17678  eV     1   --> A_1  L_1       
     e(  3 -  4) =     10.58096  eV     2   --> E    L_3       
     e(  5 -  6) =     21.86291  eV     2   --> E    L_3       
     e(  7 -  7) =     22.23456  eV     1   --> A_1  L_1       
     e(  8 -  8) =     29.12019  eV     1   --> A_1  L_1       

 **************************************************************************

 **************************************************************************

                    xk=(   0.45000,   0.45000,   0.45000  )

     Band symmetry, C_3v (3m)   point group:

     e(  1 -  1) =     -2.89244  eV     1   --> A_1  L_1       
     e(  2 -  2) =      0.64837  eV     1   --> A_1  L_1       
     e(  3 -  4) =     10.61410  eV     2   --> E    L_3       
     e(  5 -  6) =     21.85784  eV     2   --> E    L_3       
     e(  7 -  7) =     22.21801  eV     1   --> A_1  L_1       
     e(  8 -  8) =     29.09548  eV     1   --> A_1  L_1       

 **************************************************************************

 **************************************************************************

                    xk=(   0.42500,   0.42500,   0.42500  )

     Band symmetry, C_3v (3m)   point group:

     e(  1 -  1) =     -3.36306  eV     1   --> A_1  L_1       
     e(  2 -  2) =      1.26244  eV     1   --> A_1  L_1       
     e(  3 -  4) =     10.66969  eV     2   --> E    L_3       
     e(  5 -  6) =     21.85009  eV     2   --> E    L_3       
     e(  7 -  7) =     22.19016  eV     1   --> A_1  L_1       
     e(  8 -  8) =     29.05177  eV     1   --> A_1  L_1       

 **************************************************************************

 **************************************************************************

                    xk=(   0.40000,   0.40000,   0.40000  )

     Band symmetry, C_3v (3m)   point group:

     e(  1 -  1) =     -3.85471  eV     1   --> A_1  L_1       
     e(  2 -  2) =      1.95251  eV     1   --> A_1  L_1       
     e(  3 -  4) =     10.74078  eV     2   --> E    L_3       
     e(  5 -  6) =     21.82790  eV     2   --> E    L_3       
     e(  7 -  7) =     22.14715  eV     1   --> A_1  L_1       
     e(  8 -  8) =     28.97602  eV     1   --> A_1  L_1       

 **************************************************************************

 **************************************************************************

                    xk=(   0.37500,   0.37500,   0.37500  )

     Band symmetry, C_3v (3m)   point group:

     e(  1 -  1) =     -4.33953  eV     1   --> A_1  L_1       
     e(  2 -  2) =      2.69213  eV     1   --> A_1  L_1       
     e(  3 -  4) =     10.83973  eV     2   --> E    L_3       
     e(  5 -  6) =     21.79214  eV     2   --> E    L_3       
     e(  7 -  7) =     22.09279  eV     1   --> A_1  L_1       
     e(  8 -  8) =     28.90582  eV     1   --> A_1  L_1       

 **************************************************************************

 **************************************************************************

                    xk=(   0.35000,   0.35000,   0.35000  )

     Band symmetry, C_3v (3m)   point group:

     e(  1 -  1) =     -4.80689  eV     1   --> A_1  L_1       
     e(  2 -  2) =      3.46664  eV     1   --> A_1  L_1       
     e(  3 -  4) =     10.95851  eV     2   --> E    L_3       
     e(  5 -  6) =     21.73552  eV     2   --> E    L_3       
     e(  7 -  7) =     22.02443  eV     1   --> A_1  L_1       
     e(  8 -  8) =     28.78291  eV     1   --> A_1  L_1       

 **************************************************************************

 **************************************************************************

                    xk=(   0.32500,   0.32500,   0.32500  )

     Band symmetry, C_3v (3m)   point group:

     e(  1 -  1) =     -5.25016  eV     1   --> A_1  L_1       
     e(  2 -  2) =      4.26252  eV     1   --> A_1  L_1       
     e(  3 -  4) =     11.09684  eV     2   --> E    L_3       
     e(  5 -  6) =     21.64676  eV     2   --> E    L_3       
     e(  7 -  7) =     21.93964  eV     1   --> A_1  L_1       
     e(  8 -  8) =     28.62693  eV     1   --> A_1  L_1       

 **************************************************************************

 **************************************************************************

                    xk=(   0.30000,   0.30000,   0.30000  )

     Band symmetry, C_3v (3m)   point group:

     e(  1 -  1) =     -5.66583  eV     1   --> A_1  L_1       
     e(  2 -  2) =      5.08576  eV     1   --> A_1  L_1       
     e(  3 -  4) =     11.25520  eV     2   --> E    L_3       
     e(  5 -  6) =     21.53067  eV     2   --> E    L_3       
     e(  7 -  7) =     21.83598  eV     1   --> A_1  L_1       
     e(  8 -  8) =     28.45010  eV     1   --> A_1  L_1       

 **************************************************************************

 **************************************************************************

                    xk=(   0.27500,   0.27500,   0.27500  )

     Band symmetry, C_3v (3m)   point group:

     e(  1 -  1) =     -6.05160  eV     1   --> A_1  L_1       
     e(  2 -  2) =      5.92585  eV     1   --> A_1  L_1       
     e(  3 -  4) =     11.43413  eV     2   --> E    L_3       
     e(  5 -  6) =     21.40149  eV     2   --> E    L_3       
     e(  7 -  7) =     21.70329  eV     1   --> A_1  L_1       
     e(  8 -  8) =     28.24960  eV     1   --> A_1  L_1       

 **************************************************************************

 **************************************************************************

                    xk=(   0.25000,   0.25000,   0.25000  )

     Band symmetry, C_3v (3m)   point group:

     e(  1 -  1) =     -6.40657  eV     1   --> A_1  L_1       
     e(  2 -  2) =      6.77157  eV     1   --> A_1  L_1       
     e(  3 -  4) =     11.62403  eV     2   --> E    L_3       
     e(  5 -  6) =     21.21030  eV     2   --> E    L_3       
     e(  7 -  7) =     21.54407  eV     1   --> A_1  L_1       
     e(  8 -  8) =     28.02927  eV     1   --> A_1  L_1       

 **************************************************************************

     BANDS        :      0.34s CPU      0.38s WALL


   This run was terminated on:  23:58:11   5Oct2024            

=------------------------------------------------------------------------------=
   JOB DONE.
=------------------------------------------------------------------------------=
