
     Program PWSCF v.7.3.1 starts on  5Oct2024 at 23:58: 8 

     This program is part of the open-source Quantum ESPRESSO suite
     for quantum simulation of materials; please cite
         "P. Giannozzi et al., J. Phys.:Condens. Matter 21 395502 (2009);
         "P. Giannozzi et al., J. Phys.:Condens. Matter 29 465901 (2017);
         "P. Giannozzi et al., J. Chem. Phys. 152 154105 (2020);
          URL http://www.quantum-espresso.org", 
     in publications or presentations arising from this work. More details at
     http://www.quantum-espresso.org/quote

     Parallel version (MPI & OpenMP), running on       2 processor cores
     Number of MPI processes:                 2
     Threads/MPI process:                     1

     MPI processes distributed on     1 nodes
     508606 MiB available memory on the printing compute node when the environment starts

     Waiting for input...
     Reading input from standard input
Warning: card &IONS ignored
Warning: card / ignored

     Current dimensions of program PWSCF are:
     Max number of different atomic species (ntypx) = 10
     Max number of k-points (npk) =  40000
     Max angular momentum in pseudopotentials (lmaxx) =  4

     Atomic positions and unit cell read from directory:
     ./diamond.save/


     R & G space division:  proc/nbgrp/npool/nimage =       2
     Subspace diagonalization in iterative solution of the eigenvalue problem:
     a serial algorithm will be used


     Parallelization info
     --------------------
     sticks:   dense  smooth     PW     G-vecs:    dense   smooth      PW
     Min         156     156     48                 1847     1847     322
     Max         157     157     49                 1848     1848     323
     Sum         313     313     97                 3695     3695     645

     Using Slab Decomposition



     bravais-lattice index     =            2
     lattice parameter (alat)  =       6.7370  a.u.
     unit-cell volume          =      76.4433 (a.u.)^3
     number of atoms/cell      =            2
     number of atomic types    =            1
     number of electrons       =         8.00
     number of Kohn-Sham states=            8
     kinetic-energy cutoff     =      50.0000  Ry
     charge density cutoff     =     200.0000  Ry
     Exchange-correlation= PBE
                           (   1   4   3   4   0   0   0)

     celldm(1)=   6.737000  celldm(2)=   0.000000  celldm(3)=   0.000000
     celldm(4)=   0.000000  celldm(5)=   0.000000  celldm(6)=   0.000000

     crystal axes: (cart. coord. in units of alat)
               a(1) = (  -0.500000   0.000000   0.500000 )  
               a(2) = (   0.000000   0.500000   0.500000 )  
               a(3) = (  -0.500000   0.500000   0.000000 )  

     reciprocal axes: (cart. coord. in units 2 pi/alat)
               b(1) = ( -1.000000 -1.000000  1.000000 )  
               b(2) = (  1.000000  1.000000  1.000000 )  
               b(3) = ( -1.000000  1.000000 -1.000000 )  


     PseudoPot. # 1 for C  read from file:
     ./C_ONCV_PBE-1.0.upf
     MD5 check sum: 40f8c33130f0afa4272e9dcc1c4fb0df
     Pseudo is Norm-conserving, Zval =  4.0
     Generated using ONCVPSP code by D. R. Hamann
     Using radial grid of  602 points,  4 beta functions with: 
                l(1) =   0
                l(2) =   0
                l(3) =   1
                l(4) =   1

     atomic species   valence    mass     pseudopotential
     C                 4.00    12.00000     C ( 1.00)

     48 Sym. Ops., with inversion, found (24 have fractional translation)


                                    s                        frac. trans.

      isym =  1     identity                                     

 cryst.   s( 1) = (     1          0          0      )
                  (     0          1          0      )
                  (     0          0          1      )

 cart.    s( 1) = (  1.0000000  0.0000000  0.0000000 )
                  (  0.0000000  1.0000000  0.0000000 )
                  (  0.0000000  0.0000000  1.0000000 )


      isym =  2     180 deg rotation - cart. axis [0,0,1]        

 cryst.   s( 2) = (     0          1         -1      )
                  (     1          0         -1      )
                  (     0          0         -1      )

 cart.    s( 2) = ( -1.0000000  0.0000000  0.0000000 )
                  (  0.0000000 -1.0000000  0.0000000 )
                  (  0.0000000  0.0000000  1.0000000 )


      isym =  3     180 deg rotation - cart. axis [0,1,0]        

 cryst.   s( 3) = (    -1          0          0      )
                  (    -1          0          1      )
                  (    -1          1          0      )

 cart.    s( 3) = ( -1.0000000  0.0000000  0.0000000 )
                  (  0.0000000  1.0000000  0.0000000 )
                  (  0.0000000  0.0000000 -1.0000000 )


      isym =  4     180 deg rotation - cart. axis [1,0,0]        

 cryst.   s( 4) = (     0         -1          1      )
                  (     0         -1          0      )
                  (     1         -1          0      )

 cart.    s( 4) = (  1.0000000  0.0000000  0.0000000 )
                  (  0.0000000 -1.0000000  0.0000000 )
                  (  0.0000000  0.0000000 -1.0000000 )


      isym =  5     180 deg rotation - cart. axis [1,1,0]        

 cryst.   s( 5) = (     0         -1          0      )    f =(  0.2500000 )
                  (    -1          0          0      )       (  0.2500000 )
                  (     0          0         -1      )       (  0.2500000 )

 cart.    s( 5) = (  0.0000000  1.0000000  0.0000000 )    f =( -0.2500000 )
                  (  1.0000000  0.0000000  0.0000000 )       (  0.2500000 )
                  (  0.0000000  0.0000000 -1.0000000 )       (  0.2500000 )


      isym =  6     180 deg rotation - cart. axis [1,-1,0]       

 cryst.   s( 6) = (    -1          0          1      )    f =(  0.2500000 )
                  (     0         -1          1      )       (  0.2500000 )
                  (     0          0          1      )       (  0.2500000 )

 cart.    s( 6) = (  0.0000000 -1.0000000  0.0000000 )    f =( -0.2500000 )
                  ( -1.0000000  0.0000000  0.0000000 )       (  0.2500000 )
                  (  0.0000000  0.0000000 -1.0000000 )       (  0.2500000 )


      isym =  7      90 deg rotation - cart. axis [0,0,-1]       

 cryst.   s( 7) = (     0          1          0      )    f =(  0.2500000 )
                  (     0          1         -1      )       (  0.2500000 )
                  (    -1          1          0      )       (  0.2500000 )

 cart.    s( 7) = (  0.0000000  1.0000000  0.0000000 )    f =( -0.2500000 )
                  ( -1.0000000  0.0000000  0.0000000 )       (  0.2500000 )
                  (  0.0000000  0.0000000  1.0000000 )       (  0.2500000 )


      isym =  8      90 deg rotation - cart. axis [0,0,1]        

 cryst.   s( 8) = (     1          0         -1      )    f =(  0.2500000 )
                  (     1          0          0      )       (  0.2500000 )
                  (     1         -1          0      )       (  0.2500000 )

 cart.    s( 8) = (  0.0000000 -1.0000000  0.0000000 )    f =( -0.2500000 )
                  (  1.0000000  0.0000000  0.0000000 )       (  0.2500000 )
                  (  0.0000000  0.0000000  1.0000000 )       (  0.2500000 )


      isym =  9     180 deg rotation - cart. axis [1,0,1]        

 cryst.   s( 9) = (    -1          0          0      )    f =(  0.2500000 )
                  (     0          0         -1      )       (  0.2500000 )
                  (     0         -1          0      )       (  0.2500000 )

 cart.    s( 9) = (  0.0000000  0.0000000  1.0000000 )    f =( -0.2500000 )
                  (  0.0000000 -1.0000000  0.0000000 )       (  0.2500000 )
                  (  1.0000000  0.0000000  0.0000000 )       (  0.2500000 )


      isym = 10     180 deg rotation - cart. axis [-1,0,1]       

 cryst.   s(10) = (     1          0          0      )    f =(  0.2500000 )
                  (     1         -1          0      )       (  0.2500000 )
                  (     1          0         -1      )       (  0.2500000 )

 cart.    s(10) = (  0.0000000  0.0000000 -1.0000000 )    f =( -0.2500000 )
                  (  0.0000000 -1.0000000  0.0000000 )       (  0.2500000 )
                  ( -1.0000000  0.0000000  0.0000000 )       (  0.2500000 )


      isym = 11      90 deg rotation - cart. axis [0,1,0]        

 cryst.   s(11) = (     0          1         -1      )    f =(  0.2500000 )
                  (    -1          1          0      )       (  0.2500000 )
                  (     0          1          0      )       (  0.2500000 )

 cart.    s(11) = (  0.0000000  0.0000000  1.0000000 )    f =( -0.2500000 )
                  (  0.0000000  1.0000000  0.0000000 )       (  0.2500000 )
                  ( -1.0000000  0.0000000  0.0000000 )       (  0.2500000 )


      isym = 12      90 deg rotation - cart. axis [0,-1,0]       

 cryst.   s(12) = (     0         -1          1      )    f =(  0.2500000 )
                  (     0          0          1      )       (  0.2500000 )
                  (    -1          0          1      )       (  0.2500000 )

 cart.    s(12) = (  0.0000000  0.0000000 -1.0000000 )    f =( -0.2500000 )
                  (  0.0000000  1.0000000  0.0000000 )       (  0.2500000 )
                  (  1.0000000  0.0000000  0.0000000 )       (  0.2500000 )


      isym = 13     180 deg rotation - cart. axis [0,1,1]        

 cryst.   s(13) = (    -1          1          0      )    f =(  0.2500000 )
                  (     0          1          0      )       (  0.2500000 )
                  (     0          1         -1      )       (  0.2500000 )

 cart.    s(13) = ( -1.0000000  0.0000000  0.0000000 )    f =( -0.2500000 )
                  (  0.0000000  0.0000000  1.0000000 )       (  0.2500000 )
                  (  0.0000000  1.0000000  0.0000000 )       (  0.2500000 )


      isym = 14     180 deg rotation - cart. axis [0,1,-1]       

 cryst.   s(14) = (     0          0         -1      )    f =(  0.2500000 )
                  (     0         -1          0      )       (  0.2500000 )
                  (    -1          0          0      )       (  0.2500000 )

 cart.    s(14) = ( -1.0000000  0.0000000  0.0000000 )    f =( -0.2500000 )
                  (  0.0000000  0.0000000 -1.0000000 )       (  0.2500000 )
                  (  0.0000000 -1.0000000  0.0000000 )       (  0.2500000 )


      isym = 15      90 deg rotation - cart. axis [-1,0,0]       

 cryst.   s(15) = (     0          0          1      )    f =(  0.2500000 )
                  (    -1          0          1      )       (  0.2500000 )
                  (     0         -1          1      )       (  0.2500000 )

 cart.    s(15) = (  1.0000000  0.0000000  0.0000000 )    f =( -0.2500000 )
                  (  0.0000000  0.0000000  1.0000000 )       (  0.2500000 )
                  (  0.0000000 -1.0000000  0.0000000 )       (  0.2500000 )


      isym = 16      90 deg rotation - cart. axis [1,0,0]        

 cryst.   s(16) = (     1         -1          0      )    f =(  0.2500000 )
                  (     1          0         -1      )       (  0.2500000 )
                  (     1          0          0      )       (  0.2500000 )

 cart.    s(16) = (  1.0000000  0.0000000  0.0000000 )    f =( -0.2500000 )
                  (  0.0000000  0.0000000 -1.0000000 )       (  0.2500000 )
                  (  0.0000000  1.0000000  0.0000000 )       (  0.2500000 )


      isym = 17     120 deg rotation - cart. axis [-1,-1,-1]     

 cryst.   s(17) = (    -1          0          1      )
                  (    -1          1          0      )
                  (    -1          0          0      )

 cart.    s(17) = (  0.0000000  1.0000000  0.0000000 )
                  (  0.0000000  0.0000000  1.0000000 )
                  (  1.0000000  0.0000000  0.0000000 )


      isym = 18     120 deg rotation - cart. axis [-1,1,1]       

 cryst.   s(18) = (     0          1          0      )
                  (     0          0          1      )
                  (     1          0          0      )

 cart.    s(18) = (  0.0000000 -1.0000000  0.0000000 )
                  (  0.0000000  0.0000000  1.0000000 )
                  ( -1.0000000  0.0000000  0.0000000 )


      isym = 19     120 deg rotation - cart. axis [1,1,-1]       

 cryst.   s(19) = (     1          0         -1      )
                  (     0          0         -1      )
                  (     0          1         -1      )

 cart.    s(19) = (  0.0000000  1.0000000  0.0000000 )
                  (  0.0000000  0.0000000 -1.0000000 )
                  ( -1.0000000  0.0000000  0.0000000 )


      isym = 20     120 deg rotation - cart. axis [1,-1,1]       

 cryst.   s(20) = (     0         -1          0      )
                  (     1         -1          0      )
                  (     0         -1          1      )

 cart.    s(20) = (  0.0000000 -1.0000000  0.0000000 )
                  (  0.0000000  0.0000000 -1.0000000 )
                  (  1.0000000  0.0000000  0.0000000 )


      isym = 21     120 deg rotation - cart. axis [1,1,1]        

 cryst.   s(21) = (     0          0         -1      )
                  (     0          1         -1      )
                  (     1          0         -1      )

 cart.    s(21) = (  0.0000000  0.0000000  1.0000000 )
                  (  1.0000000  0.0000000  0.0000000 )
                  (  0.0000000  1.0000000  0.0000000 )


      isym = 22     120 deg rotation - cart. axis [-1,1,-1]      

 cryst.   s(22) = (    -1          1          0      )
                  (    -1          0          0      )
                  (    -1          0          1      )

 cart.    s(22) = (  0.0000000  0.0000000  1.0000000 )
                  ( -1.0000000  0.0000000  0.0000000 )
                  (  0.0000000 -1.0000000  0.0000000 )


      isym = 23     120 deg rotation - cart. axis [1,-1,-1]      

 cryst.   s(23) = (     0          0          1      )
                  (     1          0          0      )
                  (     0          1          0      )

 cart.    s(23) = (  0.0000000  0.0000000 -1.0000000 )
                  ( -1.0000000  0.0000000  0.0000000 )
                  (  0.0000000  1.0000000  0.0000000 )


      isym = 24     120 deg rotation - cart. axis [-1,-1,1]      

 cryst.   s(24) = (     1         -1          0      )
                  (     0         -1          1      )
                  (     0         -1          0      )

 cart.    s(24) = (  0.0000000  0.0000000 -1.0000000 )
                  (  1.0000000  0.0000000  0.0000000 )
                  (  0.0000000 -1.0000000  0.0000000 )


      isym = 25     inversion                                    

 cryst.   s(25) = (    -1          0          0      )    f =(  0.2500000 )
                  (     0         -1          0      )       (  0.2500000 )
                  (     0          0         -1      )       (  0.2500000 )

 cart.    s(25) = ( -1.0000000  0.0000000  0.0000000 )    f =( -0.2500000 )
                  (  0.0000000 -1.0000000  0.0000000 )       (  0.2500000 )
                  (  0.0000000  0.0000000 -1.0000000 )       (  0.2500000 )


      isym = 26     inv. 180 deg rotation - cart. axis [0,0,1]   

 cryst.   s(26) = (     0         -1          1      )    f =(  0.2500000 )
                  (    -1          0          1      )       (  0.2500000 )
                  (     0          0          1      )       (  0.2500000 )

 cart.    s(26) = (  1.0000000  0.0000000  0.0000000 )    f =( -0.2500000 )
                  (  0.0000000  1.0000000  0.0000000 )       (  0.2500000 )
                  (  0.0000000  0.0000000 -1.0000000 )       (  0.2500000 )


      isym = 27     inv. 180 deg rotation - cart. axis [0,1,0]   

 cryst.   s(27) = (     1          0          0      )    f =(  0.2500000 )
                  (     1          0         -1      )       (  0.2500000 )
                  (     1         -1          0      )       (  0.2500000 )

 cart.    s(27) = (  1.0000000  0.0000000  0.0000000 )    f =( -0.2500000 )
                  (  0.0000000 -1.0000000  0.0000000 )       (  0.2500000 )
                  (  0.0000000  0.0000000  1.0000000 )       (  0.2500000 )


      isym = 28     inv. 180 deg rotation - cart. axis [1,0,0]   

 cryst.   s(28) = (     0          1         -1      )    f =(  0.2500000 )
                  (     0          1          0      )       (  0.2500000 )
                  (    -1          1          0      )       (  0.2500000 )

 cart.    s(28) = ( -1.0000000  0.0000000  0.0000000 )    f =( -0.2500000 )
                  (  0.0000000  1.0000000  0.0000000 )       (  0.2500000 )
                  (  0.0000000  0.0000000  1.0000000 )       (  0.2500000 )


      isym = 29     inv. 180 deg rotation - cart. axis [1,1,0]   

 cryst.   s(29) = (     0          1          0      )
                  (     1          0          0      )
                  (     0          0          1      )

 cart.    s(29) = (  0.0000000 -1.0000000  0.0000000 )
                  ( -1.0000000  0.0000000  0.0000000 )
                  (  0.0000000  0.0000000  1.0000000 )


      isym = 30     inv. 180 deg rotation - cart. axis [1,-1,0]  

 cryst.   s(30) = (     1          0         -1      )
                  (     0          1         -1      )
                  (     0          0         -1      )

 cart.    s(30) = (  0.0000000  1.0000000  0.0000000 )
                  (  1.0000000  0.0000000  0.0000000 )
                  (  0.0000000  0.0000000  1.0000000 )


      isym = 31     inv.  90 deg rotation - cart. axis [0,0,-1]  

 cryst.   s(31) = (     0         -1          0      )
                  (     0         -1          1      )
                  (     1         -1          0      )

 cart.    s(31) = (  0.0000000 -1.0000000  0.0000000 )
                  (  1.0000000  0.0000000  0.0000000 )
                  (  0.0000000  0.0000000 -1.0000000 )


      isym = 32     inv.  90 deg rotation - cart. axis [0,0,1]   

 cryst.   s(32) = (    -1          0          1      )
                  (    -1          0          0      )
                  (    -1          1          0      )

 cart.    s(32) = (  0.0000000  1.0000000  0.0000000 )
                  ( -1.0000000  0.0000000  0.0000000 )
                  (  0.0000000  0.0000000 -1.0000000 )


      isym = 33     inv. 180 deg rotation - cart. axis [1,0,1]   

 cryst.   s(33) = (     1          0          0      )
                  (     0          0          1      )
                  (     0          1          0      )

 cart.    s(33) = (  0.0000000  0.0000000 -1.0000000 )
                  (  0.0000000  1.0000000  0.0000000 )
                  ( -1.0000000  0.0000000  0.0000000 )


      isym = 34     inv. 180 deg rotation - cart. axis [-1,0,1]  

 cryst.   s(34) = (    -1          0          0      )
                  (    -1          1          0      )
                  (    -1          0          1      )

 cart.    s(34) = (  0.0000000  0.0000000  1.0000000 )
                  (  0.0000000  1.0000000  0.0000000 )
                  (  1.0000000  0.0000000  0.0000000 )


      isym = 35     inv.  90 deg rotation - cart. axis [0,1,0]   

 cryst.   s(35) = (     0         -1          1      )
                  (     1         -1          0      )
                  (     0         -1          0      )

 cart.    s(35) = (  0.0000000  0.0000000 -1.0000000 )
                  (  0.0000000 -1.0000000  0.0000000 )
                  (  1.0000000  0.0000000  0.0000000 )


      isym = 36     inv.  90 deg rotation - cart. axis [0,-1,0]  

 cryst.   s(36) = (     0          1         -1      )
                  (     0          0         -1      )
                  (     1          0         -1      )

 cart.    s(36) = (  0.0000000  0.0000000  1.0000000 )
                  (  0.0000000 -1.0000000  0.0000000 )
                  ( -1.0000000  0.0000000  0.0000000 )


      isym = 37     inv. 180 deg rotation - cart. axis [0,1,1]   

 cryst.   s(37) = (     1         -1          0      )
                  (     0         -1          0      )
                  (     0         -1          1      )

 cart.    s(37) = (  1.0000000  0.0000000  0.0000000 )
                  (  0.0000000  0.0000000 -1.0000000 )
                  (  0.0000000 -1.0000000  0.0000000 )


      isym = 38     inv. 180 deg rotation - cart. axis [0,1,-1]  

 cryst.   s(38) = (     0          0          1      )
                  (     0          1          0      )
                  (     1          0          0      )

 cart.    s(38) = (  1.0000000  0.0000000  0.0000000 )
                  (  0.0000000  0.0000000  1.0000000 )
                  (  0.0000000  1.0000000  0.0000000 )


      isym = 39     inv.  90 deg rotation - cart. axis [-1,0,0]  

 cryst.   s(39) = (     0          0         -1      )
                  (     1          0         -1      )
                  (     0          1         -1      )

 cart.    s(39) = ( -1.0000000  0.0000000  0.0000000 )
                  (  0.0000000  0.0000000 -1.0000000 )
                  (  0.0000000  1.0000000  0.0000000 )


      isym = 40     inv.  90 deg rotation - cart. axis [1,0,0]   

 cryst.   s(40) = (    -1          1          0      )
                  (    -1          0          1      )
                  (    -1          0          0      )

 cart.    s(40) = ( -1.0000000  0.0000000  0.0000000 )
                  (  0.0000000  0.0000000  1.0000000 )
                  (  0.0000000 -1.0000000  0.0000000 )


      isym = 41     inv. 120 deg rotation - cart. axis [-1,-1,-1]

 cryst.   s(41) = (     1          0         -1      )    f =(  0.2500000 )
                  (     1         -1          0      )       (  0.2500000 )
                  (     1          0          0      )       (  0.2500000 )

 cart.    s(41) = (  0.0000000 -1.0000000  0.0000000 )    f =( -0.2500000 )
                  (  0.0000000  0.0000000 -1.0000000 )       (  0.2500000 )
                  ( -1.0000000  0.0000000  0.0000000 )       (  0.2500000 )


      isym = 42     inv. 120 deg rotation - cart. axis [-1,1,1]  

 cryst.   s(42) = (     0         -1          0      )    f =(  0.2500000 )
                  (     0          0         -1      )       (  0.2500000 )
                  (    -1          0          0      )       (  0.2500000 )

 cart.    s(42) = (  0.0000000  1.0000000  0.0000000 )    f =( -0.2500000 )
                  (  0.0000000  0.0000000 -1.0000000 )       (  0.2500000 )
                  (  1.0000000  0.0000000  0.0000000 )       (  0.2500000 )


      isym = 43     inv. 120 deg rotation - cart. axis [1,1,-1]  

 cryst.   s(43) = (    -1          0          1      )    f =(  0.2500000 )
                  (     0          0          1      )       (  0.2500000 )
                  (     0         -1          1      )       (  0.2500000 )

 cart.    s(43) = (  0.0000000 -1.0000000  0.0000000 )    f =( -0.2500000 )
                  (  0.0000000  0.0000000  1.0000000 )       (  0.2500000 )
                  (  1.0000000  0.0000000  0.0000000 )       (  0.2500000 )


      isym = 44     inv. 120 deg rotation - cart. axis [1,-1,1]  

 cryst.   s(44) = (     0          1          0      )    f =(  0.2500000 )
                  (    -1          1          0      )       (  0.2500000 )
                  (     0          1         -1      )       (  0.2500000 )

 cart.    s(44) = (  0.0000000  1.0000000  0.0000000 )    f =( -0.2500000 )
                  (  0.0000000  0.0000000  1.0000000 )       (  0.2500000 )
                  ( -1.0000000  0.0000000  0.0000000 )       (  0.2500000 )


      isym = 45     inv. 120 deg rotation - cart. axis [1,1,1]   

 cryst.   s(45) = (     0          0          1      )    f =(  0.2500000 )
                  (     0         -1          1      )       (  0.2500000 )
                  (    -1          0          1      )       (  0.2500000 )

 cart.    s(45) = (  0.0000000  0.0000000 -1.0000000 )    f =( -0.2500000 )
                  ( -1.0000000  0.0000000  0.0000000 )       (  0.2500000 )
                  (  0.0000000 -1.0000000  0.0000000 )       (  0.2500000 )


      isym = 46     inv. 120 deg rotation - cart. axis [-1,1,-1] 

 cryst.   s(46) = (     1         -1          0      )    f =(  0.2500000 )
                  (     1          0          0      )       (  0.2500000 )
                  (     1          0         -1      )       (  0.2500000 )

 cart.    s(46) = (  0.0000000  0.0000000 -1.0000000 )    f =( -0.2500000 )
                  (  1.0000000  0.0000000  0.0000000 )       (  0.2500000 )
                  (  0.0000000  1.0000000  0.0000000 )       (  0.2500000 )


      isym = 47     inv. 120 deg rotation - cart. axis [1,-1,-1] 

 cryst.   s(47) = (     0          0         -1      )    f =(  0.2500000 )
                  (    -1          0          0      )       (  0.2500000 )
                  (     0         -1          0      )       (  0.2500000 )

 cart.    s(47) = (  0.0000000  0.0000000  1.0000000 )    f =( -0.2500000 )
                  (  1.0000000  0.0000000  0.0000000 )       (  0.2500000 )
                  (  0.0000000 -1.0000000  0.0000000 )       (  0.2500000 )


      isym = 48     inv. 120 deg rotation - cart. axis [-1,-1,1] 

 cryst.   s(48) = (    -1          1          0      )    f =(  0.2500000 )
                  (     0          1         -1      )       (  0.2500000 )
                  (     0          1          0      )       (  0.2500000 )

 cart.    s(48) = (  0.0000000  0.0000000  1.0000000 )    f =( -0.2500000 )
                  ( -1.0000000  0.0000000  0.0000000 )       (  0.2500000 )
                  (  0.0000000  1.0000000  0.0000000 )       (  0.2500000 )


     point group O_h (m-3m) 
     there are 10 classes
     the character table:

       E     8C3   3C2   6C4   6C2'  i     8S6   3s_h  6S4   6s_d 
A_1g   1.00  1.00  1.00  1.00  1.00  1.00  1.00  1.00  1.00  1.00
A_2g   1.00  1.00  1.00 -1.00 -1.00  1.00  1.00  1.00 -1.00 -1.00
E_g    2.00 -1.00  2.00  0.00  0.00  2.00 -1.00  2.00  0.00  0.00
T_1g   3.00  0.00 -1.00  1.00 -1.00  3.00  0.00 -1.00  1.00 -1.00
T_2g   3.00  0.00 -1.00 -1.00  1.00  3.00  0.00 -1.00 -1.00  1.00
A_1u   1.00  1.00  1.00  1.00  1.00 -1.00 -1.00 -1.00 -1.00 -1.00
A_2u   1.00  1.00  1.00 -1.00 -1.00 -1.00 -1.00 -1.00  1.00  1.00
E_u    2.00 -1.00  2.00  0.00  0.00 -2.00  1.00 -2.00  0.00  0.00
T_1u   3.00  0.00 -1.00  1.00 -1.00 -3.00  0.00  1.00 -1.00  1.00
T_2u   3.00  0.00 -1.00 -1.00  1.00 -3.00  0.00  1.00  1.00 -1.00

     the symmetry operations in each class and the name of the first element:

     E        1
          identity                                               
     8C3     17   19   20   18   24   21   22   23
          120 deg rotation - cart. axis [-1,-1,-1]               
     3C2      2    4    3
          180 deg rotation - cart. axis [0,0,1]                  
     6C4      7    8   15   16   12   11
           90 deg rotation - cart. axis [0,0,-1]                 
     6C2'     5    6   14   13   10    9
          180 deg rotation - cart. axis [1,1,0]                  
     i       25
          inversion                                              
     8S6     41   43   44   42   48   45   46   47
          inv. 120 deg rotation - cart. axis [-1,-1,-1]          
     3s_h    26   28   27
          inv. 180 deg rotation - cart. axis [0,0,1]             
     6S4     31   32   39   40   36   35
          inv.  90 deg rotation - cart. axis [0,0,-1]            
     6s_d    29   30   38   37   34   33
          inv. 180 deg rotation - cart. axis [1,1,0]             

   Cartesian axes

     site n.     atom                  positions (alat units)
         1        C      tau(   1) = (   0.0000000   0.0000000   0.0000000  )
         2        C      tau(   2) = (   0.2500000   0.2500000   0.2500000  )

   Crystallographic axes

     site n.     atom                  positions (cryst. coord.)
         1        C      tau(   1) = (  0.0000000  0.0000000  0.0000000  )
         2        C      tau(   2) = ( -0.2500000  0.7500000 -0.2500000  )

     number of k points=    51
                       cart. coord. in units 2pi/alat
        k(    1) = (   0.0000000   0.0000000   0.0000000), wk =   0.0392157
        k(    2) = (   0.0500000   0.0000000   0.0500000), wk =   0.0392157
        k(    3) = (   0.1000000   0.0000000   0.1000000), wk =   0.0392157
        k(    4) = (   0.1500000   0.0000000   0.1500000), wk =   0.0392157
        k(    5) = (   0.2000000   0.0000000   0.2000000), wk =   0.0392157
        k(    6) = (   0.2500000   0.0000000   0.2500000), wk =   0.0392157
        k(    7) = (   0.3000000   0.0000000   0.3000000), wk =   0.0392157
        k(    8) = (   0.3500000   0.0000000   0.3500000), wk =   0.0392157
        k(    9) = (   0.4000000   0.0000000   0.4000000), wk =   0.0392157
        k(   10) = (   0.4500000   0.0000000   0.4500000), wk =   0.0392157
        k(   11) = (   0.5000000   0.0000000   0.5000000), wk =   0.0392157
        k(   12) = (   0.4875000   0.0375000   0.5250000), wk =   0.0392157
        k(   13) = (   0.4750000   0.0750000   0.5500000), wk =   0.0392157
        k(   14) = (   0.4625000   0.1125000   0.5750000), wk =   0.0392157
        k(   15) = (   0.4500000   0.1500000   0.6000000), wk =   0.0392157
        k(   16) = (   0.4375000   0.1875000   0.6250000), wk =   0.0392157
        k(   17) = (   0.4250000   0.2250000   0.6500000), wk =   0.0392157
        k(   18) = (   0.4125000   0.2625000   0.6750000), wk =   0.0392157
        k(   19) = (   0.4000000   0.3000000   0.7000000), wk =   0.0392157
        k(   20) = (   0.3875000   0.3375000   0.7250000), wk =   0.0392157
        k(   21) = (   0.3750000   0.3750000   0.7500000), wk =   0.0392157
        k(   22) = (   0.3375000   0.3375000   0.6750000), wk =   0.0392157
        k(   23) = (   0.3000000   0.3000000   0.6000000), wk =   0.0392157
        k(   24) = (   0.2625000   0.2625000   0.5250000), wk =   0.0392157
        k(   25) = (   0.2250000   0.2250000   0.4500000), wk =   0.0392157
        k(   26) = (   0.1875000   0.1875000   0.3750000), wk =   0.0392157
        k(   27) = (   0.1500000   0.1500000   0.3000000), wk =   0.0392157
        k(   28) = (   0.1125000   0.1125000   0.2250000), wk =   0.0392157
        k(   29) = (   0.0750000   0.0750000   0.1500000), wk =   0.0392157
        k(   30) = (   0.0375000   0.0375000   0.0750000), wk =   0.0392157
        k(   31) = (   0.0000000   0.0000000   0.0000000), wk =   0.0392157
        k(   32) = (   0.0500000   0.0500000   0.0500000), wk =   0.0392157
        k(   33) = (   0.1000000   0.1000000   0.1000000), wk =   0.0392157
        k(   34) = (   0.1500000   0.1500000   0.1500000), wk =   0.0392157
        k(   35) = (   0.2000000   0.2000000   0.2000000), wk =   0.0392157
        k(   36) = (   0.2500000   0.2500000   0.2500000), wk =   0.0392157
        k(   37) = (   0.3000000   0.3000000   0.3000000), wk =   0.0392157
        k(   38) = (   0.3500000   0.3500000   0.3500000), wk =   0.0392157
        k(   39) = (   0.4000000   0.4000000   0.4000000), wk =   0.0392157
        k(   40) = (   0.4500000   0.4500000   0.4500000), wk =   0.0392157
        k(   41) = (   0.5000000   0.5000000   0.5000000), wk =   0.0392157
        k(   42) = (   0.4750000   0.4750000   0.4750000), wk =   0.0392157
        k(   43) = (   0.4500000   0.4500000   0.4500000), wk =   0.0392157
        k(   44) = (   0.4250000   0.4250000   0.4250000), wk =   0.0392157
        k(   45) = (   0.4000000   0.4000000   0.4000000), wk =   0.0392157
        k(   46) = (   0.3750000   0.3750000   0.3750000), wk =   0.0392157
        k(   47) = (   0.3500000   0.3500000   0.3500000), wk =   0.0392157
        k(   48) = (   0.3250000   0.3250000   0.3250000), wk =   0.0392157
        k(   49) = (   0.3000000   0.3000000   0.3000000), wk =   0.0392157
        k(   50) = (   0.2750000   0.2750000   0.2750000), wk =   0.0392157
        k(   51) = (   0.2500000   0.2500000   0.2500000), wk =   0.0392157

                       cryst. coord.
        k(    1) = (   0.0000000   0.0000000   0.0000000), wk =   0.0392157
        k(    2) = (   0.0000000   0.0250000  -0.0250000), wk =   0.0392157
        k(    3) = (   0.0000000   0.0500000  -0.0500000), wk =   0.0392157
        k(    4) = (   0.0000000   0.0750000  -0.0750000), wk =   0.0392157
        k(    5) = (   0.0000000   0.1000000  -0.1000000), wk =   0.0392157
        k(    6) = (   0.0000000   0.1250000  -0.1250000), wk =   0.0392157
        k(    7) = (   0.0000000   0.1500000  -0.1500000), wk =   0.0392157
        k(    8) = (   0.0000000   0.1750000  -0.1750000), wk =   0.0392157
        k(    9) = (   0.0000000   0.2000000  -0.2000000), wk =   0.0392157
        k(   10) = (   0.0000000   0.2250000  -0.2250000), wk =   0.0392157
        k(   11) = (   0.0000000   0.2500000  -0.2500000), wk =   0.0392157
        k(   12) = (   0.0187500   0.2812500  -0.2250000), wk =   0.0392157
        k(   13) = (   0.0375000   0.3125000  -0.2000000), wk =   0.0392157
        k(   14) = (   0.0562500   0.3437500  -0.1750000), wk =   0.0392157
        k(   15) = (   0.0750000   0.3750000  -0.1500000), wk =   0.0392157
        k(   16) = (   0.0937500   0.4062500  -0.1250000), wk =   0.0392157
        k(   17) = (   0.1125000   0.4375000  -0.1000000), wk =   0.0392157
        k(   18) = (   0.1312500   0.4687500  -0.0750000), wk =   0.0392157
        k(   19) = (   0.1500000   0.5000000  -0.0500000), wk =   0.0392157
        k(   20) = (   0.1687500   0.5312500  -0.0250000), wk =   0.0392157
        k(   21) = (   0.1875000   0.5625000   0.0000000), wk =   0.0392157
        k(   22) = (   0.1687500   0.5062500   0.0000000), wk =   0.0392157
        k(   23) = (   0.1500000   0.4500000   0.0000000), wk =   0.0392157
        k(   24) = (   0.1312500   0.3937500   0.0000000), wk =   0.0392157
        k(   25) = (   0.1125000   0.3375000   0.0000000), wk =   0.0392157
        k(   26) = (   0.0937500   0.2812500   0.0000000), wk =   0.0392157
        k(   27) = (   0.0750000   0.2250000   0.0000000), wk =   0.0392157
        k(   28) = (   0.0562500   0.1687500   0.0000000), wk =   0.0392157
        k(   29) = (   0.0375000   0.1125000   0.0000000), wk =   0.0392157
        k(   30) = (   0.0187500   0.0562500   0.0000000), wk =   0.0392157
        k(   31) = (   0.0000000   0.0000000   0.0000000), wk =   0.0392157
        k(   32) = (   0.0000000   0.0500000   0.0000000), wk =   0.0392157
        k(   33) = (   0.0000000   0.1000000   0.0000000), wk =   0.0392157
        k(   34) = (   0.0000000   0.1500000   0.0000000), wk =   0.0392157
        k(   35) = (   0.0000000   0.2000000   0.0000000), wk =   0.0392157
        k(   36) = (   0.0000000   0.2500000   0.0000000), wk =   0.0392157
        k(   37) = (   0.0000000   0.3000000   0.0000000), wk =   0.0392157
        k(   38) = (   0.0000000   0.3500000   0.0000000), wk =   0.0392157
        k(   39) = (   0.0000000   0.4000000   0.0000000), wk =   0.0392157
        k(   40) = (   0.0000000   0.4500000   0.0000000), wk =   0.0392157
        k(   41) = (   0.0000000   0.5000000   0.0000000), wk =   0.0392157
        k(   42) = (   0.0000000   0.4750000   0.0000000), wk =   0.0392157
        k(   43) = (   0.0000000   0.4500000   0.0000000), wk =   0.0392157
        k(   44) = (   0.0000000   0.4250000   0.0000000), wk =   0.0392157
        k(   45) = (   0.0000000   0.4000000   0.0000000), wk =   0.0392157
        k(   46) = (   0.0000000   0.3750000   0.0000000), wk =   0.0392157
        k(   47) = (   0.0000000   0.3500000   0.0000000), wk =   0.0392157
        k(   48) = (   0.0000000   0.3250000   0.0000000), wk =   0.0392157
        k(   49) = (   0.0000000   0.3000000   0.0000000), wk =   0.0392157
        k(   50) = (   0.0000000   0.2750000   0.0000000), wk =   0.0392157
        k(   51) = (   0.0000000   0.2500000   0.0000000), wk =   0.0392157

     Dense  grid:     3695 G-vectors     FFT dimensions: (  24,  24,  24)

     Dynamical RAM for                 wfc:       0.03 MB

     Dynamical RAM for     wfc (w. buffer):       0.03 MB

     Dynamical RAM for           str. fact:       0.03 MB

     Dynamical RAM for           local pot:       0.00 MB

     Dynamical RAM for          nlocal pot:       0.06 MB

     Dynamical RAM for                qrad:       0.32 MB

     Dynamical RAM for          rho,v,vnew:       0.24 MB

     Dynamical RAM for           G-vectors:       0.12 MB

     Dynamical RAM for          h,s,v(r/c):       0.01 MB

     Dynamical RAM for          <psi|beta>:       0.00 MB

     Dynamical RAM for                 psi:       0.06 MB

     Dynamical RAM for                hpsi:       0.06 MB

     Dynamical RAM for      wfcinit/wfcrot:       0.06 MB

     Estimated static dynamical RAM per process >       1.12 MB

     Estimated max dynamical RAM per process >       1.24 MB

     Estimated total dynamical RAM >       2.49 MB

     The potential is recalculated from file :
     ./diamond.save/charge-density

     Starting wfcs are random

     Band Structure Calculation
     Davidson diagonalization with overlap

     Computing kpt #:     1  of    51
     total cpu time spent up to now is        0.3 secs

     Computing kpt #:     2  of    51
     total cpu time spent up to now is        0.3 secs

     Computing kpt #:     3  of    51
     total cpu time spent up to now is        0.3 secs

     Computing kpt #:     4  of    51
     total cpu time spent up to now is        0.3 secs

     Computing kpt #:     5  of    51
     total cpu time spent up to now is        0.4 secs

     Computing kpt #:     6  of    51
     total cpu time spent up to now is        0.4 secs

     Computing kpt #:     7  of    51
     total cpu time spent up to now is        0.4 secs

     Computing kpt #:     8  of    51
     total cpu time spent up to now is        0.4 secs

     Computing kpt #:     9  of    51
     total cpu time spent up to now is        0.4 secs

     Computing kpt #:    10  of    51
     total cpu time spent up to now is        0.5 secs

     Computing kpt #:    11  of    51
     total cpu time spent up to now is        0.5 secs

     Computing kpt #:    12  of    51
     total cpu time spent up to now is        0.5 secs

     Computing kpt #:    13  of    51
     total cpu time spent up to now is        0.5 secs

     Computing kpt #:    14  of    51
     total cpu time spent up to now is        0.6 secs

     Computing kpt #:    15  of    51
     total cpu time spent up to now is        0.6 secs

     Computing kpt #:    16  of    51
     total cpu time spent up to now is        0.6 secs

     Computing kpt #:    17  of    51
     total cpu time spent up to now is        0.6 secs

     Computing kpt #:    18  of    51
     total cpu time spent up to now is        0.6 secs

     Computing kpt #:    19  of    51
     total cpu time spent up to now is        0.7 secs

     Computing kpt #:    20  of    51
     total cpu time spent up to now is        0.7 secs

     Computing kpt #:    21  of    51
     total cpu time spent up to now is        0.7 secs

     Computing kpt #:    22  of    51
     total cpu time spent up to now is        0.7 secs

     Computing kpt #:    23  of    51
     total cpu time spent up to now is        0.7 secs

     Computing kpt #:    24  of    51
     total cpu time spent up to now is        0.8 secs

     Computing kpt #:    25  of    51
     total cpu time spent up to now is        0.8 secs

     Computing kpt #:    26  of    51
     total cpu time spent up to now is        0.8 secs

     Computing kpt #:    27  of    51
     total cpu time spent up to now is        0.8 secs

     Computing kpt #:    28  of    51
     total cpu time spent up to now is        0.8 secs

     Computing kpt #:    29  of    51
     total cpu time spent up to now is        0.9 secs

     Computing kpt #:    30  of    51
     total cpu time spent up to now is        0.9 secs

     Computing kpt #:    31  of    51
     total cpu time spent up to now is        0.9 secs

     Computing kpt #:    32  of    51
     total cpu time spent up to now is        0.9 secs

     Computing kpt #:    33  of    51
     total cpu time spent up to now is        0.9 secs

     Computing kpt #:    34  of    51
     total cpu time spent up to now is        0.9 secs

     Computing kpt #:    35  of    51
     total cpu time spent up to now is        1.0 secs

     Computing kpt #:    36  of    51
     total cpu time spent up to now is        1.0 secs

     Computing kpt #:    37  of    51
     total cpu time spent up to now is        1.0 secs

     Computing kpt #:    38  of    51
     total cpu time spent up to now is        1.0 secs

     Computing kpt #:    39  of    51
     total cpu time spent up to now is        1.0 secs

     Computing kpt #:    40  of    51
     total cpu time spent up to now is        1.1 secs

     Computing kpt #:    41  of    51
     total cpu time spent up to now is        1.1 secs

     Computing kpt #:    42  of    51
     total cpu time spent up to now is        1.1 secs

     Computing kpt #:    43  of    51
     total cpu time spent up to now is        1.1 secs

     Computing kpt #:    44  of    51
     total cpu time spent up to now is        1.1 secs

     Computing kpt #:    45  of    51
     total cpu time spent up to now is        1.2 secs

     Computing kpt #:    46  of    51
     total cpu time spent up to now is        1.2 secs

     Computing kpt #:    47  of    51
     total cpu time spent up to now is        1.2 secs

     Computing kpt #:    48  of    51
     total cpu time spent up to now is        1.2 secs

     Computing kpt #:    49  of    51
     total cpu time spent up to now is        1.2 secs

     Computing kpt #:    50  of    51
     total cpu time spent up to now is        1.2 secs

     Computing kpt #:    51  of    51
     total cpu time spent up to now is        1.3 secs

     ethr =  1.25E-10,  avg # of iterations = 24.8

     total cpu time spent up to now is        1.3 secs

     End of band structure calculation

          k = 0.0000 0.0000 0.0000 (   459 PWs)   bands (ev):

    -8.1214  13.3914  13.3914  13.3914  18.9943  18.9943  18.9943  26.7025

     occupation numbers 
     1.0000   1.0000   1.0000   1.0000   0.0000   0.0000   0.0000   0.0000

          k = 0.0500 0.0000 0.0500 (   459 PWs)   bands (ev):

    -8.0751  13.1160  13.1958  13.3632  19.0415  19.1461  19.2222  26.7431

     occupation numbers 
     1.0000   1.0000   1.0000   1.0000   0.0000   0.0000   0.0000   0.0000

          k = 0.1000 0.0000 0.1000 (   465 PWs)   bands (ev):

    -7.9370  12.3968  12.6636  13.2732  19.1818  19.5542  19.7760  26.8492

     occupation numbers 
     1.0000   1.0000   1.0000   1.0000   0.0000   0.0000   0.0000   0.0000

          k = 0.1500 0.0000 0.1500 (   465 PWs)   bands (ev):

    -7.7068  11.4647  11.9180  13.1201  19.4111  20.1136  20.4477  26.9934

     occupation numbers 
     1.0000   1.0000   1.0000   1.0000   0.0000   0.0000   0.0000   0.0000

          k = 0.2000 0.0000 0.2000 (   469 PWs)   bands (ev):

    -7.3856  10.4340  11.0446  12.8987  19.7377  20.7627  21.0748  27.1201

     occupation numbers 
     1.0000   1.0000   1.0000   1.0000   0.0000   0.0000   0.0000   0.0000

          k = 0.2500 0.0000 0.2500 (   469 PWs)   bands (ev):

    -6.9740   9.3807  10.1197  12.6159  20.1513  21.4718  21.5814  27.1762

     occupation numbers 
     1.0000   1.0000   1.0000   1.0000   0.0000   0.0000   0.0000   0.0000

          k = 0.3000 0.0000 0.3000 (   467 PWs)   bands (ev):

    -6.4738   8.3441   9.1795  12.2651  20.6515  21.9212  22.2318  27.1491

     occupation numbers 
     1.0000   1.0000   1.0000   1.0000   0.0000   0.0000   0.0000   0.0000

          k = 0.3500 0.0000 0.3500 (   457 PWs)   bands (ev):

    -5.8872   7.3422   8.2545  11.8514  21.2557  22.0679  23.0450  27.0846

     occupation numbers 
     1.0000   1.0000   1.0000   1.0000   0.0000   0.0000   0.0000   0.0000

          k = 0.4000 0.0000 0.4000 (   453 PWs)   bands (ev):

    -5.2175   6.3895   7.3653  11.3876  21.9189  21.9956  23.9074  27.0659

     occupation numbers 
     1.0000   1.0000   1.0000   1.0000   0.0000   0.0000   0.0000   0.0000

          k = 0.4500 0.0000 0.4500 (   451 PWs)   bands (ev):

    -4.4703   5.4957   6.5280  10.8877  21.7371  22.6445  24.8245  27.1470

     occupation numbers 
     1.0000   1.0000   1.0000   1.0000   0.0000   0.0000   0.0000   0.0000

          k = 0.5000 0.0000 0.5000 (   443 PWs)   bands (ev):

    -3.6526   4.6661   5.7589  10.3672  21.3484  23.4436  25.7906  27.3343

     occupation numbers 
     1.0000   1.0000   1.0000   1.0000   0.0000   0.0000   0.0000   0.0000

          k = 0.4875 0.0375 0.5250 (   454 PWs)   bands (ev):

    -3.5295   4.3450   5.8983  10.2687  21.3324  23.4531  25.8242  27.4142

     occupation numbers 
     1.0000   1.0000   1.0000   1.0000   0.0000   0.0000   0.0000   0.0000

          k = 0.4750 0.0750 0.5500 (   454 PWs)   bands (ev):

    -3.3707   3.8213   6.2692  10.1246  21.4111  23.3039  25.7681  27.5685

     occupation numbers 
     1.0000   1.0000   1.0000   1.0000   0.0000   0.0000   0.0000   0.0000

          k = 0.4625 0.1125 0.5750 (   454 PWs)   bands (ev):

    -3.1785   3.2669   6.6937   9.9376  21.5638  23.0185  25.6974  27.7086

     occupation numbers 
     1.0000   1.0000   1.0000   1.0000   0.0000   0.0000   0.0000   0.0000

          k = 0.4500 0.1500 0.6000 (   456 PWs)   bands (ev):

    -2.9557   2.7229   7.1213   9.7212  21.7373  22.6918  25.6505  27.7944

     occupation numbers 
     1.0000   1.0000   1.0000   1.0000   0.0000   0.0000   0.0000   0.0000

          k = 0.4375 0.1875 0.6250 (   452 PWs)   bands (ev):

    -2.7061   2.2102   7.5158   9.5022  21.7322  22.5786  25.6219  27.8456

     occupation numbers 
     1.0000   1.0000   1.0000   1.0000   0.0000   0.0000   0.0000   0.0000

          k = 0.4250 0.2250 0.6500 (   456 PWs)   bands (ev):

    -2.4372   1.7399   7.8247   9.3141  21.4302  22.8196  25.5683  27.8787

     occupation numbers 
     1.0000   1.0000   1.0000   1.0000   0.0000   0.0000   0.0000   0.0000

          k = 0.4125 0.2625 0.6750 (   456 PWs)   bands (ev):

    -2.1610   1.3303   7.9778   9.2259  21.0776  23.2095  25.4733  27.9420

     occupation numbers 
     1.0000   1.0000   1.0000   1.0000   0.0000   0.0000   0.0000   0.0000

          k = 0.4000 0.3000 0.7000 (   456 PWs)   bands (ev):

    -1.8999   1.0020   7.9303   9.2690  20.7900  23.6463  25.3287  28.0464

     occupation numbers 
     1.0000   1.0000   1.0000   1.0000   0.0000   0.0000   0.0000   0.0000

          k = 0.3875 0.3375 0.7250 (   453 PWs)   bands (ev):

    -1.6910   0.7954   7.7450   9.3683  20.6133  24.0635  25.1672  28.2031

     occupation numbers 
     1.0000   1.0000   1.0000   1.0000   0.0000   0.0000   0.0000   0.0000

          k = 0.3750 0.3750 0.7500 (   453 PWs)   bands (ev):

    -1.5826   0.7559   7.5000   9.4368  20.5716  24.2756  25.1480  28.3855

     occupation numbers 
     1.0000   1.0000   1.0000   1.0000   0.0000   0.0000   0.0000   0.0000

          k = 0.3375 0.3375 0.6750 (   454 PWs)   bands (ev):

    -2.2524   1.2392   8.2942   9.3977  20.5114  24.1713  24.6883  27.7774

     occupation numbers 
     1.0000   1.0000   1.0000   1.0000   0.0000   0.0000   0.0000   0.0000

          k = 0.3000 0.3000 0.6000 (   450 PWs)   bands (ev):

    -3.3332   2.3839   9.1080   9.4985  20.4904  23.9659  24.1991  27.2564

     occupation numbers 
     1.0000   1.0000   1.0000   1.0000   0.0000   0.0000   0.0000   0.0000

          k = 0.2625 0.2625 0.5250 (   454 PWs)   bands (ev):

    -4.4001   3.7592   9.7357   9.9150  20.4472  23.6463  23.6717  26.9483

     occupation numbers 
     1.0000   1.0000   1.0000   1.0000   0.0000   0.0000   0.0000   0.0000

          k = 0.2250 0.2250 0.4500 (   456 PWs)   bands (ev):

    -5.3626   5.2703  10.1104  10.6880  20.3262  23.0945  23.1960  26.9064

     occupation numbers 
     1.0000   1.0000   1.0000   1.0000   0.0000   0.0000   0.0000   0.0000

          k = 0.1875 0.1875 0.3750 (   464 PWs)   bands (ev):

    -6.1940   6.8677  10.6097  11.4001  20.1060  22.4608  22.5724  27.0407

     occupation numbers 
     1.0000   1.0000   1.0000   1.0000   0.0000   0.0000   0.0000   0.0000

          k = 0.1500 0.1500 0.3000 (   468 PWs)   bands (ev):

    -6.8828   8.5143  11.2181  12.0390  19.8175  21.7558  21.7820  27.1592

     occupation numbers 
     1.0000   1.0000   1.0000   1.0000   0.0000   0.0000   0.0000   0.0000

          k = 0.1125 0.1125 0.2250 (   470 PWs)   bands (ev):

    -7.4228  10.1497  11.9061  12.5837  19.5075  20.8843  20.9630  27.1097

     occupation numbers 
     1.0000   1.0000   1.0000   1.0000   0.0000   0.0000   0.0000   0.0000

          k = 0.0750 0.0750 0.1500 (   464 PWs)   bands (ev):

    -7.8103  11.6726  12.5953  13.0142  19.2496  19.9922  20.1215  26.9346

     occupation numbers 
     1.0000   1.0000   1.0000   1.0000   0.0000   0.0000   0.0000   0.0000

          k = 0.0375 0.0375 0.0750 (   459 PWs)   bands (ev):

    -8.0434  12.8925  13.1629  13.2962  19.0606  19.2779  19.3446  26.7701

     occupation numbers 
     1.0000   1.0000   1.0000   1.0000   0.0000   0.0000   0.0000   0.0000

          k = 0.0000 0.0000 0.0000 (   459 PWs)   bands (ev):

    -8.1214  13.3914  13.3914  13.3914  18.9943  18.9943  18.9943  26.7025

     occupation numbers 
     1.0000   1.0000   1.0000   1.0000   0.0000   0.0000   0.0000   0.0000

          k = 0.0500 0.0500 0.0500 (   459 PWs)   bands (ev):

    -8.0520  12.9046  13.2674  13.2674  19.1567  19.1567  19.2947  26.7646

     occupation numbers 
     1.0000   1.0000   1.0000   1.0000   0.0000   0.0000   0.0000   0.0000

          k = 0.1000 0.1000 0.1000 (   462 PWs)   bands (ev):

    -7.8448  11.6969  12.9371  12.9371  19.5879  19.5879  19.9463  26.9418

     occupation numbers 
     1.0000   1.0000   1.0000   1.0000   0.0000   0.0000   0.0000   0.0000

          k = 0.1500 0.1500 0.1500 (   465 PWs)   bands (ev):

    -7.5001  10.1598  12.5081  12.5081  20.1470  20.1470  20.6043  27.2328

     occupation numbers 
     1.0000   1.0000   1.0000   1.0000   0.0000   0.0000   0.0000   0.0000

          k = 0.2000 0.2000 0.2000 (   465 PWs)   bands (ev):

    -7.0198   8.4848  12.0489  12.0489  20.7270  20.7270  21.1440  27.6091

     occupation numbers 
     1.0000   1.0000   1.0000   1.0000   0.0000   0.0000   0.0000   0.0000

          k = 0.2500 0.2500 0.2500 (   465 PWs)   bands (ev):

    -6.4066   6.7716  11.6240  11.6240  21.2103  21.2103  21.5441  28.0293

     occupation numbers 
     1.0000   1.0000   1.0000   1.0000   0.0000   0.0000   0.0000   0.0000

          k = 0.3000 0.3000 0.3000 (   468 PWs)   bands (ev):

    -5.6658   5.0858  11.2552  11.2552  21.5307  21.5307  21.8360  28.4501

     occupation numbers 
     1.0000   1.0000   1.0000   1.0000   0.0000   0.0000   0.0000   0.0000

          k = 0.3500 0.3500 0.3500 (   462 PWs)   bands (ev):

    -4.8069   3.4666  10.9585  10.9585  21.7355  21.7355  22.0244  28.7829

     occupation numbers 
     1.0000   1.0000   1.0000   1.0000   0.0000   0.0000   0.0000   0.0000

          k = 0.4000 0.4000 0.4000 (   467 PWs)   bands (ev):

    -3.8547   1.9525  10.7408  10.7408  21.8279  21.8279  22.1472  28.9760

     occupation numbers 
     1.0000   1.0000   1.0000   1.0000   0.0000   0.0000   0.0000   0.0000

          k = 0.4500 0.4500 0.4500 (   464 PWs)   bands (ev):

    -2.8924   0.6484  10.6141  10.6141  21.8578  21.8578  22.2180  29.0955

     occupation numbers 
     1.0000   1.0000   1.0000   1.0000   0.0000   0.0000   0.0000   0.0000

          k = 0.5000 0.5000 0.5000 (   464 PWs)   bands (ev):

    -2.3432  -0.0154  10.5699  10.5699  21.8643  21.8643  22.2400  29.1281

     occupation numbers 
     1.0000   1.0000   1.0000   1.0000   0.0000   0.0000   0.0000   0.0000

          k = 0.4750 0.4750 0.4750 (   464 PWs)   bands (ev):

    -2.5067   0.1768  10.5810  10.5810  21.8629  21.8629  22.2346  29.1202

     occupation numbers 
     1.0000   1.0000   1.0000   1.0000   0.0000   0.0000   0.0000   0.0000

          k = 0.4500 0.4500 0.4500 (   464 PWs)   bands (ev):

    -2.8924   0.6484  10.6141  10.6141  21.8578  21.8578  22.2180  29.0955

     occupation numbers 
     1.0000   1.0000   1.0000   1.0000   0.0000   0.0000   0.0000   0.0000

          k = 0.4250 0.4250 0.4250 (   461 PWs)   bands (ev):

    -3.3631   1.2624  10.6697  10.6697  21.8501  21.8501  22.1902  29.0518

     occupation numbers 
     1.0000   1.0000   1.0000   1.0000   0.0000   0.0000   0.0000   0.0000

          k = 0.4000 0.4000 0.4000 (   467 PWs)   bands (ev):

    -3.8547   1.9525  10.7408  10.7408  21.8279  21.8279  22.1472  28.9760

     occupation numbers 
     1.0000   1.0000   1.0000   1.0000   0.0000   0.0000   0.0000   0.0000

          k = 0.3750 0.3750 0.3750 (   462 PWs)   bands (ev):

    -4.3395   2.6921  10.8397  10.8397  21.7921  21.7921  22.0928  28.9058

     occupation numbers 
     1.0000   1.0000   1.0000   1.0000   0.0000   0.0000   0.0000   0.0000

          k = 0.3500 0.3500 0.3500 (   462 PWs)   bands (ev):

    -4.8069   3.4666  10.9585  10.9585  21.7355  21.7355  22.0244  28.7829

     occupation numbers 
     1.0000   1.0000   1.0000   1.0000   0.0000   0.0000   0.0000   0.0000

          k = 0.3250 0.3250 0.3250 (   468 PWs)   bands (ev):

    -5.2502   4.2625  11.0968  11.0968  21.6468  21.6468  21.9396  28.6269

     occupation numbers 
     1.0000   1.0000   1.0000   1.0000   0.0000   0.0000   0.0000   0.0000

          k = 0.3000 0.3000 0.3000 (   468 PWs)   bands (ev):

    -5.6658   5.0858  11.2552  11.2552  21.5307  21.5307  21.8360  28.4501

     occupation numbers 
     1.0000   1.0000   1.0000   1.0000   0.0000   0.0000   0.0000   0.0000

          k = 0.2750 0.2750 0.2750 (   459 PWs)   bands (ev):

    -6.0516   5.9258  11.4341  11.4341  21.4015  21.4015  21.7033  28.2496

     occupation numbers 
     1.0000   1.0000   1.0000   1.0000   0.0000   0.0000   0.0000   0.0000

          k = 0.2500 0.2500 0.2500 (   465 PWs)   bands (ev):

    -6.4066   6.7716  11.6240  11.6240  21.2103  21.2103  21.5441  28.0293

     occupation numbers 
     1.0000   1.0000   1.0000   1.0000   0.0000   0.0000   0.0000   0.0000

     highest occupied, lowest unoccupied level (ev):    13.3914   18.9943

     Writing all to output data dir ./diamond.save/ :
     XML data file, pseudopotentials, collected wavefunctions

     init_run     :      0.19s CPU      0.23s WALL (       1 calls)
     electrons    :      0.89s CPU      1.00s WALL (       1 calls)

     Called by init_run:
     wfcinit      :      0.00s CPU      0.00s WALL (       1 calls)
     wfcinit:wfcr :      0.03s CPU      0.04s WALL (      51 calls)
     potinit      :      0.00s CPU      0.00s WALL (       1 calls)
     hinit0       :      0.19s CPU      0.19s WALL (       1 calls)

     Called by electrons:
     c_bands      :      0.89s CPU      0.98s WALL (       1 calls)
     v_of_rho     :      0.00s CPU      0.00s WALL (       1 calls)
     v_h          :      0.00s CPU      0.00s WALL (       1 calls)
     v_xc         :      0.00s CPU      0.00s WALL (       1 calls)

     Called by c_bands:
     init_us_2    :      0.00s CPU      0.00s WALL (      51 calls)
     cegterg      :      0.85s CPU      0.93s WALL (      94 calls)

     Called by sum_band:

     Called by *egterg:
     cdiaghg      :      0.15s CPU      0.16s WALL (    1318 calls)
     cegterg:over :      0.02s CPU      0.02s WALL (    1267 calls)
     cegterg:upda :      0.02s CPU      0.02s WALL (    1267 calls)
     cegterg:last :      0.02s CPU      0.02s WALL (    1050 calls)
     h_psi        :      0.66s CPU      0.72s WALL (    1412 calls)
     g_psi        :      0.01s CPU      0.01s WALL (    1267 calls)

     Called by h_psi:
     h_psi:calbec :      0.02s CPU      0.02s WALL (    1412 calls)
     vloc_psi     :      0.62s CPU      0.68s WALL (    1412 calls)
     add_vuspsi   :      0.01s CPU      0.01s WALL (    1412 calls)

     General routines
     calbec       :      0.01s CPU      0.01s WALL (    1412 calls)
     fft          :      0.18s CPU      0.18s WALL (      10 calls)
     fftw         :      0.53s CPU      0.58s WALL (   17974 calls)
     davcio       :      0.00s CPU      0.00s WALL (     102 calls)

     Parallel routines

     PWSCF        :      1.13s CPU      1.93s WALL


   This run was terminated on:  23:58:10   5Oct2024            

=------------------------------------------------------------------------------=
   JOB DONE.
=------------------------------------------------------------------------------=
