LAMMPS (23 Jun 2022 - Update 4)
OMP_NUM_THREADS environment is not set. Defaulting to 1 thread. (src/src/comm.cpp:98)
  using 1 OpenMP thread(s) per MPI task
# MSE 401 Lab 2
# Heat and cooling of Aluminum using Molecular Dynamics

# Section 1: Setting up initial parameters

# Define unit set and class of atomic model
units metal
atom_style atomic

# Parameters for Problems 2.1:
# -----------------------------------------------------------------------------
variable TempInitial equal 900
variable TempFinal equal 2000
variable TempStep equal 25
variable StepSize equal 0.001
# -----------------------------------------------------------------------------

# Periodic boundary conditions along all three dimensions
boundary p p p

# Create an FCC lattice with the lattice spacing supplied supplied by the user
# using a single conventional (orthogonal) unit cell

lattice fcc 4.04525
Lattice spacing in x,y,z = 4.04525 4.04525 4.04525
region  box block 0 2 0 2 0 2 units lattice
create_box  1 box
Created orthogonal box = (0 0 0) to (8.0905 8.0905 8.0905)
  1 by 1 by 2 MPI processor grid
create_atoms 1 box
Created 32 atoms
  using lattice units in orthogonal box = (0 0 0) to (8.0905 8.0905 8.0905)
  create_atoms CPU = 0.000 seconds

# Specify which force fields or potentials to use
pair_style eam/alloy
pair_coeff * * ./Al_mm.eam.fs  Al
Reading eam/alloy potential file ./Al_mm.eam.fs with DATE: 2007-06-11
#pair_style	lj/cut 2.5
#pair_coeff	1 1 1.0 1.0 2.5

# Create files outside of any loops
variable prallfile string prall.txt
# Print headers
print "Temp                     Press                     Vol                     Etotal" file ${prallfile}
print "Temp                     Press                     Vol                     Etotal" file prall.txt
Temp                     Press                     Vol                     Etotal

# Set what thermodynamic information to print to log
compute mytemp all temp
compute mypress all pressure thermo_temp
# compute statements to normalize the pe and ke
compute NormPE all pe/atom
compute NormKE all ke/atom
# calculate average value over atoms
compute avgPE all reduce ave c_NormPE
compute avgKE all reduce ave c_NormKE
# create variables for average Etotal, Temp, and Pressure, and vol
variable avgEtotal   equal c_avgPE+c_avgKE
variable vmytemp   equal c_mytemp
variable vmypress   equal c_mypress
variable vmyvol  equal vol

# set thermo style which determines what thermo data will be displayed on each timestep of our runs
thermo_style custom step time temp pe ke etotal c_mytemp c_mypress vol
timestep 0.001

# Section 2: Starting MD runs

# NVE stabilization run
variable tempinit equal 600 # Use 2*${tempvar} for fixed E ensemble.
velocity all create ${tempinit} 825577 dist gaussian
velocity all create 600 825577 dist gaussian
fix 1 all nve # nve ensemble molecular dynamics.
fix 2 all ave/time 1 10 10 c_mytemp c_mypress v_vmyvol v_avgEtotal file nveeqfile.txt
thermo 1000 # Print every "thermo" timesteps
run 5000
Neighbor list info ...
  update every 1 steps, delay 10 steps, check yes
  max neighbors/atom: 2000, page size: 100000
  master list distance cutoff = 8.5
  ghost atom cutoff = 8.5
  binsize = 4.25, bins = 2 2 2
  1 neighbor lists, perpetual/occasional/extra = 1 0 0
  (1) pair eam/alloy, perpetual
      attributes: half, newton on
      pair build: half/bin/atomonly/newton
      stencil: half/bin/3d
      bin: standard
Per MPI rank memory allocation (min/avg/max) = 3.346 | 3.346 | 3.346 Mbytes
   Step          Time           Temp          PotEng         KinEng         TotEng        c_mytemp      c_mypress        Volume    
         0   0              600           -109.14102      2.4042387     -106.73678      600            4854.6303      529.57331    
      1000   1              297.43987     -107.9281       1.1918607     -106.73624      297.43987      16140.891      529.57331    
      2000   2              328.31007     -108.05193      1.3155596     -106.73637      328.31007      15910.49       529.57331    
      3000   3              323.22736     -108.03156      1.2951929     -106.73636      323.22736      15720.917      529.57331    
      4000   4              271.89734     -107.82573      1.0895102     -106.73622      271.89734      16892.09       529.57331    
      5000   5              350.10661     -108.13931      1.4028998     -106.73641      350.10661      15163.968      529.57331    
Loop time of 0.35656 on 2 procs for 5000 steps with 32 atoms

Performance: 1211.579 ns/day, 0.020 hours/ns, 14022.904 timesteps/s
98.7% CPU use with 2 MPI tasks x 1 OpenMP threads

MPI task timing breakdown:
Section |  min time  |  avg time  |  max time  |%varavg| %total
---------------------------------------------------------------
Pair    | 0.23332    | 0.24923    | 0.26514    |   3.2 | 69.90
Neigh   | 0          | 0          | 0          |   0.0 |  0.00
Comm    | 0.047705   | 0.063733   | 0.07976    |   6.3 | 17.87
Output  | 0.00013547 | 0.00015012 | 0.00016478 |   0.0 |  0.04
Modify  | 0.03584    | 0.037542   | 0.039243   |   0.9 | 10.53
Other   |            | 0.005906   |            |       |  1.66

Nlocal:             16 ave          16 max          16 min
Histogram: 2 0 0 0 0 0 0 0 0 0
Nghost:            914 ave         914 max         914 min
Histogram: 2 0 0 0 0 0 0 0 0 0
Neighs:           1120 ave        1314 max         926 min
Histogram: 1 0 0 0 0 0 0 0 0 1

Total # of neighbors = 2240
Ave neighs/atom = 70
Neighbor list builds = 0
Dangerous builds = 0
unfix 2
unfix 1

# NPT stabilization run
fix 1 all npt temp 700 700 0.1 iso 1000000 1000000 1 drag 1 # npt ensemble molecular dynamics.
fix 2 all ave/time 1 10 10 c_mytemp c_mypress v_vmyvol v_avgEtotal file npteqfile.txt
thermo 1000
run 5000
Per MPI rank memory allocation (min/avg/max) = 3.605 | 3.605 | 3.605 Mbytes
   Step          Time           Temp          PotEng         KinEng         TotEng        c_mytemp      c_mypress        Volume    
      5000   5              350.10661     -108.13931      1.4028998     -106.73641      350.10661      15163.968      529.57331    
      6000   6              839.01327     -92.115483      3.3619803     -88.753503      839.01327      908495.34      394.8496     
      7000   7              676.14046     -91.314213      2.7093384     -88.604875      676.14046      1019577.7      394.35001    
      8000   8              690.8253      -91.217276      2.7681815     -88.449094      690.8253       1021973.7      394.08394    
      9000   9              841.43361     -91.87338       3.3716787     -88.501701      841.43361      966232.97      393.97433    
     10000   10             727.87093     -91.351292      2.9166258     -88.434667      727.87093      1002881.6      393.90303    
Loop time of 0.482765 on 2 procs for 5000 steps with 32 atoms

Performance: 894.845 ns/day, 0.027 hours/ns, 10357.006 timesteps/s
98.1% CPU use with 2 MPI tasks x 1 OpenMP threads

MPI task timing breakdown:
Section |  min time  |  avg time  |  max time  |%varavg| %total
---------------------------------------------------------------
Pair    | 0.32257    | 0.33739    | 0.3522     |   2.6 | 69.89
Neigh   | 5.0886e-05 | 5.1948e-05 | 5.301e-05  |   0.0 |  0.01
Comm    | 0.054426   | 0.069675   | 0.084925   |   5.8 | 14.43
Output  | 0.00010555 | 0.00046398 | 0.0008224  |   0.0 |  0.10
Modify  | 0.06958    | 0.070313   | 0.071047   |   0.3 | 14.56
Other   |            | 0.004872   |            |       |  1.01

Nlocal:             16 ave          17 max          15 min
Histogram: 1 0 0 0 0 0 0 0 0 1
Nghost:            914 ave         915 max         913 min
Histogram: 1 0 0 0 0 0 0 0 0 1
Neighs:           1537 ave        1685 max        1389 min
Histogram: 1 0 0 0 0 0 0 0 0 1

Total # of neighbors = 3074
Ave neighs/atom = 96.0625
Neighbor list builds = 1
Dangerous builds = 0
unfix 2
unfix 1

# --------------------------------------------------------------------------------------------
# Generate loops to ramp temperature up
variable LoopSize equal 21
label LoopStart
variable i loop ${LoopSize}
variable i loop 21
print " "
 
print "*******LOOP # $i*********"
*******LOOP # 1*********
print " "
 
variable tempvar equal ${TempStep}*${i}+${TempInitial}-${TempStep}
variable tempvar equal 25*${i}+${TempInitial}-${TempStep}
variable tempvar equal 25*1+${TempInitial}-${TempStep}
variable tempvar equal 25*1+900-${TempStep}
variable tempvar equal 25*1+900-25
variable rampup_eqavgfile string rampup_eqavg_${tempvar}.txt
variable rampup_eqavgfile string rampup_eqavg_900.txt
variable rampup_pravgfile string rampup_pravg_${tempvar}.txt
variable rampup_pravgfile string rampup_pravg_900.txt
# variable rampup_eqfile string rampup_eq_${tempvar}.txt

# NPT Equilibration run at temperature
reset_timestep 0
variable eqrunl equal 1E4 # Keep > 10000 to avoid crashing fix lines below for time avg output
fix 1 all npt temp ${tempvar} ${tempvar} 0.1 iso 1000000 1000000 1 drag 1 # npt ensemble molecular dynamics.
fix 1 all npt temp 900 ${tempvar} 0.1 iso 1000000 1000000 1 drag 1 
fix 1 all npt temp 900 900 0.1 iso 1000000 1000000 1 drag 1 

fix 2 all ave/time 1 10 10 c_mytemp c_mypress v_vmyvol v_avgEtotal file ${rampup_eqavgfile}
fix 2 all ave/time 1 10 10 c_mytemp c_mypress v_vmyvol v_avgEtotal file rampup_eqavg_900.txt
# print to file average of every 10 steps. Every 10 femptoseconds


# fix 3 all ave/time 1 10000 10000 c_mytemp c_mypress v_vmyvol v_avgEtotal file ${rampup_eqfile}
thermo 1000 # Print every "thermo" timesteps
run ${eqrunl}
run 10000
Per MPI rank memory allocation (min/avg/max) = 3.605 | 3.605 | 3.605 Mbytes
   Step          Time           Temp          PotEng         KinEng         TotEng        c_mytemp      c_mypress        Volume    
         0   0              727.87093     -91.351292      2.9166258     -88.434667      727.87093      1002881.6      393.90303    
      1000   1              1009.0227     -91.789942      4.0432189     -87.746723      1009.0227      882900.41      394.99539    
      2000   2              974.95846     -91.385764      3.9067214     -87.479043      974.95846      920020.39      394.74045    
      3000   3              888.22635     -90.888176      3.5591803     -87.328996      888.22635      974213.81      394.5137     
      4000   4              1025.0844     -90.765647      4.1075791     -86.658068      1025.0844      1087210.6      393.47812    
      5000   5              896.95146     -90.758388      3.5941423     -87.164246      896.95146      1058959.2      394.27087    
      6000   6              914.22682     -90.081665      3.6633658     -86.418299      914.22682      1138449.5      393.14362    
      7000   7              1090.2019     -90.515127      4.3685093     -86.146618      1090.2019      1159525.3      392.60453    
      8000   8              963.7495      -90.379892      3.8618064     -86.518085      963.7495       1140661        393.28756    
      9000   9              1080.3132     -91.289051      4.3288847     -86.960166      1080.3132      1005599.1      393.83631    
     10000   10             875.9873      -90.632084      3.5101376     -87.121946      875.9873       1017351.4      394.13029    
Loop time of 1.02865 on 2 procs for 10000 steps with 32 atoms

Performance: 839.934 ns/day, 0.029 hours/ns, 9721.457 timesteps/s
98.1% CPU use with 2 MPI tasks x 1 OpenMP threads

MPI task timing breakdown:
Section |  min time  |  avg time  |  max time  |%varavg| %total
---------------------------------------------------------------
Pair    | 0.67019    | 0.71582    | 0.76145    |   5.4 | 69.59
Neigh   | 0          | 0          | 0          |   0.0 |  0.00
Comm    | 0.1141     | 0.16053    | 0.20696    |  11.6 | 15.61
Output  | 0.00015347 | 0.00017844 | 0.00020341 |   0.0 |  0.02
Modify  | 0.14236    | 0.14259    | 0.14282    |   0.1 | 13.86
Other   |            | 0.009531   |            |       |  0.93

Nlocal:             16 ave          17 max          15 min
Histogram: 1 0 0 0 0 0 0 0 0 1
Nghost:            914 ave         915 max         913 min
Histogram: 1 0 0 0 0 0 0 0 0 1
Neighs:           1645 ave        1847 max        1443 min
Histogram: 1 0 0 0 0 0 0 0 0 1

Total # of neighbors = 3290
Ave neighs/atom = 102.8125
Neighbor list builds = 0
Dangerous builds = 0
unfix 2
# unfix 3

# NPT Production run at temperature
reset_timestep 0
variable prrunl equal 1E4
fix 3 all ave/time 1 10000 10000 c_mytemp c_mypress v_vmyvol v_avgEtotal
fix 4 all ave/time 1 10 10 c_mytemp c_mypress v_vmyvol v_avgEtotal file ${rampup_pravgfile}
fix 4 all ave/time 1 10 10 c_mytemp c_mypress v_vmyvol v_avgEtotal file rampup_pravg_900.txt
# print to file average of every 10 steps. Every 10 femptoseconds

thermo 1000 # Print every "thermo" timesteps
run ${prrunl}
run 10000
Per MPI rank memory allocation (min/avg/max) = 3.605 | 3.605 | 3.605 Mbytes
   Step          Time           Temp          PotEng         KinEng         TotEng        c_mytemp      c_mypress        Volume    
         0   0              875.9873      -90.632084      3.5101376     -87.121946      875.9873       1017351.4      394.13029    
      1000   1              833.8173      -89.88828       3.3411597     -86.54712       833.8173       1119770.5      393.23676    
      2000   2              1002.9377     -91.641679      4.0188362     -87.622843      1002.9377      936175.95      394.99101    
      3000   3              948.47753     -91.164546      3.8006107     -87.363935      948.47753      942697.75      394.54857    
      4000   4              842.30767     -90.69315       3.3751811     -87.317968      842.30767      1031135.8      394.0877     
      5000   5              880.63068     -90.642256      3.5287439     -87.113512      880.63068      1041339.3      393.9121     
      6000   6              1000.9739     -90.989345      4.0109671     -86.978378      1000.9739      1050547.7      393.85885    
      7000   7              842.0447      -90.379359      3.3741274     -87.005232      842.0447       1097315.3      394.01444    
      8000   8              937.75395     -91.894887      3.7576405     -88.137247      937.75395      875714.97      395.89053    
      9000   9              852.18444     -91.334162      3.414758      -87.919404      852.18444      884723.37      395.48172    
     10000   10             676.10941     -89.521864      2.709214      -86.81265       676.10941      1111668.3      393.41672    
Loop time of 1.01148 on 2 procs for 10000 steps with 32 atoms

Performance: 854.192 ns/day, 0.028 hours/ns, 9886.476 timesteps/s
97.8% CPU use with 2 MPI tasks x 1 OpenMP threads

MPI task timing breakdown:
Section |  min time  |  avg time  |  max time  |%varavg| %total
---------------------------------------------------------------
Pair    | 0.66392    | 0.677      | 0.69009    |   1.6 | 66.93
Neigh   | 0          | 0          | 0          |   0.0 |  0.00
Comm    | 0.11044    | 0.12458    | 0.13872    |   4.0 | 12.32
Output  | 0.00017797 | 0.0002078  | 0.00023763 |   0.0 |  0.02
Modify  | 0.19995    | 0.20005    | 0.20014    |   0.0 | 19.78
Other   |            | 0.009644   |            |       |  0.95

Nlocal:             16 ave          18 max          14 min
Histogram: 1 0 0 0 0 0 0 0 0 1
Nghost:            914 ave         916 max         912 min
Histogram: 1 0 0 0 0 0 0 0 0 1
Neighs:         1645.5 ave        1726 max        1565 min
Histogram: 1 0 0 0 0 0 0 0 0 1

Total # of neighbors = 3291
Ave neighs/atom = 102.84375
Neighbor list builds = 0
Dangerous builds = 0
variable final_temp_avg equal f_3[1]
variable final_press_avg equal f_3[2]
variable final_vol_avg equal f_3[3]
variable final_etot_avg equal f_3[4]

print "${final_temp_avg} ${final_press_avg} ${final_vol_avg} ${final_etot_avg}" append ${prallfile}
print "${final_temp_avg} ${final_press_avg} ${final_vol_avg} ${final_etot_avg}" append prall.txt
898.8907148318 999903.660593774 394.378689292166 -2.72732489230378

unfix 3
unfix 4
#unfix 1

next i
jump Ramp.txt.in LoopStart
variable i loop ${LoopSize}
variable i loop 21
print " "
 
print "*******LOOP # $i*********"
*******LOOP # 2*********
print " "
 
variable tempvar equal ${TempStep}*${i}+${TempInitial}-${TempStep}
variable tempvar equal 25*${i}+${TempInitial}-${TempStep}
variable tempvar equal 25*2+${TempInitial}-${TempStep}
variable tempvar equal 25*2+900-${TempStep}
variable tempvar equal 25*2+900-25
variable rampup_eqavgfile string rampup_eqavg_${tempvar}.txt
variable rampup_eqavgfile string rampup_eqavg_925.txt
variable rampup_pravgfile string rampup_pravg_${tempvar}.txt
variable rampup_pravgfile string rampup_pravg_925.txt
# variable rampup_eqfile string rampup_eq_${tempvar}.txt

# NPT Equilibration run at temperature
reset_timestep 0
variable eqrunl equal 1E4 # Keep > 10000 to avoid crashing fix lines below for time avg output
fix 1 all npt temp ${tempvar} ${tempvar} 0.1 iso 1000000 1000000 1 drag 1 # npt ensemble molecular dynamics.
fix 1 all npt temp 925 ${tempvar} 0.1 iso 1000000 1000000 1 drag 1 
fix 1 all npt temp 925 925 0.1 iso 1000000 1000000 1 drag 1 

fix 2 all ave/time 1 10 10 c_mytemp c_mypress v_vmyvol v_avgEtotal file ${rampup_eqavgfile}
fix 2 all ave/time 1 10 10 c_mytemp c_mypress v_vmyvol v_avgEtotal file rampup_eqavg_925.txt
# print to file average of every 10 steps. Every 10 femptoseconds


# fix 3 all ave/time 1 10000 10000 c_mytemp c_mypress v_vmyvol v_avgEtotal file ${rampup_eqfile}
thermo 1000 # Print every "thermo" timesteps
run ${eqrunl}
run 10000
Per MPI rank memory allocation (min/avg/max) = 3.605 | 3.605 | 3.605 Mbytes
   Step          Time           Temp          PotEng         KinEng         TotEng        c_mytemp      c_mypress        Volume    
         0   0              676.10941     -89.521864      2.709214      -86.81265       676.10941      1111668.3      393.41672    
      1000   1              1006.8788     -91.169974      4.0346285     -87.135345      1006.8788      984116.75      394.36369    
      2000   2              845.58127     -90.399204      3.3882987     -87.010906      845.58127      1042325.7      394.288      
      3000   3              918.05938     -90.452952      3.6787231     -86.774229      918.05938      1062409.2      393.81076    
      4000   4              864.62206     -91.335738      3.4645964     -87.871141      864.62206      897873.38      395.66743    
      5000   5              1037.7573     -91.933433      4.1583604     -87.775073      1037.7573      863013.66      395.49032    
      6000   6              986.49265     -91.713545      3.9529397     -87.760605      986.49265      870754.91      395.50678    
      7000   7              996.93289     -90.631785      3.9947744     -86.637011      996.93289      1065067.8      393.65592    
      8000   8              1080.6051     -91.689243      4.3300544     -87.359188      1080.6051      918115.23      394.97787    
      9000   9              963.29803     -90.246796      3.8599973     -86.386799      963.29803      1175250.7      393.13381    
     10000   10             967.52054     -90.675773      3.8769172     -86.798856      967.52054      1047321.3      393.91849    
Loop time of 1.06155 on 2 procs for 10000 steps with 32 atoms

Performance: 813.903 ns/day, 0.029 hours/ns, 9420.179 timesteps/s
97.7% CPU use with 2 MPI tasks x 1 OpenMP threads

MPI task timing breakdown:
Section |  min time  |  avg time  |  max time  |%varavg| %total
---------------------------------------------------------------
Pair    | 0.60882    | 0.70674    | 0.80465    |  11.6 | 66.58
Neigh   | 0.00016479 | 0.0001992  | 0.0002336  |   0.0 |  0.02
Comm    | 0.10916    | 0.20693    | 0.30469    |  21.5 | 19.49
Output  | 0.00020384 | 0.00049324 | 0.00078264 |   0.0 |  0.05
Modify  | 0.13746    | 0.13785    | 0.13824    |   0.1 | 12.99
Other   |            | 0.009345   |            |       |  0.88

Nlocal:             16 ave          17 max          15 min
Histogram: 1 0 0 0 0 0 0 0 0 1
Nghost:            914 ave         915 max         913 min
Histogram: 1 0 0 0 0 0 0 0 0 1
Neighs:           1640 ave        2025 max        1255 min
Histogram: 1 0 0 0 0 0 0 0 0 1

Total # of neighbors = 3280
Ave neighs/atom = 102.5
Neighbor list builds = 4
Dangerous builds = 0
unfix 2
# unfix 3

# NPT Production run at temperature
reset_timestep 0
variable prrunl equal 1E4
fix 3 all ave/time 1 10000 10000 c_mytemp c_mypress v_vmyvol v_avgEtotal
fix 4 all ave/time 1 10 10 c_mytemp c_mypress v_vmyvol v_avgEtotal file ${rampup_pravgfile}
fix 4 all ave/time 1 10 10 c_mytemp c_mypress v_vmyvol v_avgEtotal file rampup_pravg_925.txt
# print to file average of every 10 steps. Every 10 femptoseconds

thermo 1000 # Print every "thermo" timesteps
run ${prrunl}
run 10000
Per MPI rank memory allocation (min/avg/max) = 3.605 | 3.605 | 3.605 Mbytes
   Step          Time           Temp          PotEng         KinEng         TotEng        c_mytemp      c_mypress        Volume    
         0   0              967.52054     -90.675773      3.8769172     -86.798856      967.52054      1047321.3      393.91849    
      1000   1              968.71034     -90.897512      3.8816848     -87.015828      968.71034      988623.31      394.41856    
      2000   2              974.0107      -90.698798      3.9029237     -86.795874      974.0107       1034151.9      393.88888    
      3000   3              1017.2853     -91.280951      4.0763278     -87.204623      1017.2853      949044.52      394.70798    
      4000   4              916.9925      -91.269028      3.6744481     -87.594579      916.9925       898707.09      395.11979    
      5000   5              878.31363     -90.447355      3.5194594     -86.927896      878.31363      1026154.8      394.11195    
      6000   6              900.89106     -91.065293      3.6099286     -87.455365      900.89106      951234.56      394.97331    
      7000   7              895.29885     -90.595669      3.5875202     -87.008149      895.29885      1045586.6      394.33856    
      8000   8              835.71489     -90.456569      3.3487635     -87.107806      835.71489      1021803.7      394.35118    
      9000   9              781.38811     -90.35615       3.1310725     -87.225078      781.38811      1057866.2      394.56841    
     10000   10             753.31175     -90.754029      3.0185688     -87.73546       753.31175      931811.4       395.45299    
Loop time of 1.06583 on 2 procs for 10000 steps with 32 atoms

Performance: 810.636 ns/day, 0.030 hours/ns, 9382.357 timesteps/s
98.2% CPU use with 2 MPI tasks x 1 OpenMP threads

MPI task timing breakdown:
Section |  min time  |  avg time  |  max time  |%varavg| %total
---------------------------------------------------------------
Pair    | 0.62872    | 0.69127    | 0.75381    |   7.5 | 64.86
Neigh   | 0          | 0          | 0          |   0.0 |  0.00
Comm    | 0.10676    | 0.16978    | 0.23279    |  15.3 | 15.93
Output  | 0.00012875 | 0.00016204 | 0.00019534 |   0.0 |  0.02
Modify  | 0.195      | 0.19559    | 0.19619    |   0.1 | 18.35
Other   |            | 0.009029   |            |       |  0.85

Nlocal:             16 ave          16 max          16 min
Histogram: 2 0 0 0 0 0 0 0 0 0
Nghost:            914 ave         914 max         914 min
Histogram: 2 0 0 0 0 0 0 0 0 0
Neighs:         1641.5 ave        1957 max        1326 min
Histogram: 1 0 0 0 0 0 0 0 0 1

Total # of neighbors = 3283
Ave neighs/atom = 102.59375
Neighbor list builds = 0
Dangerous builds = 0
variable final_temp_avg equal f_3[1]
variable final_press_avg equal f_3[2]
variable final_vol_avg equal f_3[3]
variable final_etot_avg equal f_3[4]

print "${final_temp_avg} ${final_press_avg} ${final_vol_avg} ${final_etot_avg}" append ${prallfile}
print "${final_temp_avg} ${final_press_avg} ${final_vol_avg} ${final_etot_avg}" append prall.txt
923.545835628261 999818.998047301 394.43189679884 -2.72171674279742

unfix 3
unfix 4
#unfix 1

next i
jump Ramp.txt.in LoopStart
variable i loop ${LoopSize}
variable i loop 21
print " "
 
print "*******LOOP # $i*********"
*******LOOP # 3*********
print " "
 
variable tempvar equal ${TempStep}*${i}+${TempInitial}-${TempStep}
variable tempvar equal 25*${i}+${TempInitial}-${TempStep}
variable tempvar equal 25*3+${TempInitial}-${TempStep}
variable tempvar equal 25*3+900-${TempStep}
variable tempvar equal 25*3+900-25
variable rampup_eqavgfile string rampup_eqavg_${tempvar}.txt
variable rampup_eqavgfile string rampup_eqavg_950.txt
variable rampup_pravgfile string rampup_pravg_${tempvar}.txt
variable rampup_pravgfile string rampup_pravg_950.txt
# variable rampup_eqfile string rampup_eq_${tempvar}.txt

# NPT Equilibration run at temperature
reset_timestep 0
variable eqrunl equal 1E4 # Keep > 10000 to avoid crashing fix lines below for time avg output
fix 1 all npt temp ${tempvar} ${tempvar} 0.1 iso 1000000 1000000 1 drag 1 # npt ensemble molecular dynamics.
fix 1 all npt temp 950 ${tempvar} 0.1 iso 1000000 1000000 1 drag 1 
fix 1 all npt temp 950 950 0.1 iso 1000000 1000000 1 drag 1 

fix 2 all ave/time 1 10 10 c_mytemp c_mypress v_vmyvol v_avgEtotal file ${rampup_eqavgfile}
fix 2 all ave/time 1 10 10 c_mytemp c_mypress v_vmyvol v_avgEtotal file rampup_eqavg_950.txt
# print to file average of every 10 steps. Every 10 femptoseconds


# fix 3 all ave/time 1 10000 10000 c_mytemp c_mypress v_vmyvol v_avgEtotal file ${rampup_eqfile}
thermo 1000 # Print every "thermo" timesteps
run ${eqrunl}
run 10000
Per MPI rank memory allocation (min/avg/max) = 3.605 | 3.605 | 3.605 Mbytes
   Step          Time           Temp          PotEng         KinEng         TotEng        c_mytemp      c_mypress        Volume    
         0   0              753.31175     -90.754029      3.0185688     -87.73546       753.31175      931811.4       395.45299    
      1000   1              937.64004     -90.338812      3.7571841     -86.581628      937.64004      1061440.9      393.86776    
      2000   2              806.64104     -90.667877      3.2322627     -87.435614      806.64104      967769.49      395.06199    
      3000   3              853.42929     -90.223746      3.4197462     -86.804         853.42929      1097545.5      394.42399    
      4000   4              978.9462      -90.932922      3.9227006     -87.010221      978.9462       1011311.9      394.59262    
      5000   5              931.6273      -90.911521      3.7330907     -87.17843       931.6273       946759.73      394.80091    
      6000   6              978.5795      -91.632033      3.9212312     -87.710802      978.5795       845811.93      395.81654    
      7000   7              681.92428     -89.040765      2.7325146     -86.30825       681.92428      1155015.3      393.48956    
      8000   8              823.42666     -90.281572      3.2995237     -86.982049      823.42666      986580.06      394.39151    
      9000   9              1037.2953     -90.893894      4.1565091     -86.737385      1037.2953      1011195.9      394.28852    
     10000   10             945.83761     -90.814617      3.7900323     -87.024585      945.83761      995454.95      394.38802    
Loop time of 1.00249 on 2 procs for 10000 steps with 32 atoms

Performance: 861.851 ns/day, 0.028 hours/ns, 9975.132 timesteps/s
97.8% CPU use with 2 MPI tasks x 1 OpenMP threads

MPI task timing breakdown:
Section |  min time  |  avg time  |  max time  |%varavg| %total
---------------------------------------------------------------
Pair    | 0.61194    | 0.68305    | 0.75416    |   8.6 | 68.13
Neigh   | 0          | 0          | 0          |   0.0 |  0.00
Comm    | 0.10644    | 0.17758    | 0.24871    |  16.9 | 17.71
Output  | 0.0001761  | 0.00019835 | 0.00022061 |   0.0 |  0.02
Modify  | 0.13261    | 0.13281    | 0.13302    |   0.1 | 13.25
Other   |            | 0.008859   |            |       |  0.88

Nlocal:             16 ave          16 max          16 min
Histogram: 2 0 0 0 0 0 0 0 0 0
Nghost:            914 ave         914 max         914 min
Histogram: 2 0 0 0 0 0 0 0 0 0
Neighs:           1642 ave        1968 max        1316 min
Histogram: 1 0 0 0 0 0 0 0 0 1

Total # of neighbors = 3284
Ave neighs/atom = 102.625
Neighbor list builds = 0
Dangerous builds = 0
unfix 2
# unfix 3

# NPT Production run at temperature
reset_timestep 0
variable prrunl equal 1E4
fix 3 all ave/time 1 10000 10000 c_mytemp c_mypress v_vmyvol v_avgEtotal
fix 4 all ave/time 1 10 10 c_mytemp c_mypress v_vmyvol v_avgEtotal file ${rampup_pravgfile}
fix 4 all ave/time 1 10 10 c_mytemp c_mypress v_vmyvol v_avgEtotal file rampup_pravg_950.txt
# print to file average of every 10 steps. Every 10 femptoseconds

thermo 1000 # Print every "thermo" timesteps
run ${prrunl}
run 10000
Per MPI rank memory allocation (min/avg/max) = 3.605 | 3.605 | 3.605 Mbytes
   Step          Time           Temp          PotEng         KinEng         TotEng        c_mytemp      c_mypress        Volume    
         0   0              945.83761     -90.814617      3.7900323     -87.024585      945.83761      995454.95      394.38802    
      1000   1              1011.6086     -90.693476      4.0535809     -86.639895      1011.6086      1068371.4      393.85905    
      2000   2              868.0128      -90.842979      3.4781833     -87.364796      868.0128       965712.8       395.14803    
      3000   3              1030.8824     -91.04954       4.1308124     -86.918727      1030.8824      1022590        394.32531    
      4000   4              908.34728     -89.957021      3.6398061     -86.317215      908.34728      1161286.4      393.48216    
      5000   5              812.91779     -89.591663      3.257414      -86.334249      812.91779      1163641.4      393.52396    
      6000   6              946.09916     -90.815498      3.7910803     -87.024418      946.09916      968939.76      394.57073    
      7000   7              1001.5814     -91.431481      4.0134011     -87.41808       1001.5814      886589.6       395.31881    
      8000   8              834.13822     -90.362993      3.3424456     -87.020547      834.13822      1048092        394.5533     
      9000   9              819.94119     -90.471497      3.2855572     -87.18594       819.94119      1002873.2      394.83489    
     10000   10             817.70035     -88.786488      3.276578      -85.50991       817.70035      1293762.1      392.32203    
Loop time of 1.10149 on 2 procs for 10000 steps with 32 atoms

Performance: 784.389 ns/day, 0.031 hours/ns, 9078.579 timesteps/s
97.5% CPU use with 2 MPI tasks x 1 OpenMP threads

MPI task timing breakdown:
Section |  min time  |  avg time  |  max time  |%varavg| %total
---------------------------------------------------------------
Pair    | 0.65238    | 0.71457    | 0.77676    |   7.4 | 64.87
Neigh   | 5.2088e-05 | 5.6276e-05 | 6.0464e-05 |   0.0 |  0.01
Comm    | 0.10988    | 0.17216    | 0.23444    |  15.0 | 15.63
Output  | 0.00019996 | 0.00054303 | 0.0008861  |   0.0 |  0.05
Modify  | 0.20413    | 0.2046     | 0.20507    |   0.1 | 18.58
Other   |            | 0.009562   |            |       |  0.87

Nlocal:             16 ave          17 max          15 min
Histogram: 1 0 0 0 0 0 0 0 0 1
Nghost:            914 ave         915 max         913 min
Histogram: 1 0 0 0 0 0 0 0 0 1
Neighs:         1641.5 ave        1796 max        1487 min
Histogram: 1 0 0 0 0 0 0 0 0 1

Total # of neighbors = 3283
Ave neighs/atom = 102.59375
Neighbor list builds = 1
Dangerous builds = 0
variable final_temp_avg equal f_3[1]
variable final_press_avg equal f_3[2]
variable final_vol_avg equal f_3[3]
variable final_etot_avg equal f_3[4]

print "${final_temp_avg} ${final_press_avg} ${final_vol_avg} ${final_etot_avg}" append ${prallfile}
print "${final_temp_avg} ${final_press_avg} ${final_vol_avg} ${final_etot_avg}" append prall.txt
947.491624000115 999651.504871685 394.513560050728 -2.71788573289946

unfix 3
unfix 4
#unfix 1

next i
jump Ramp.txt.in LoopStart
variable i loop ${LoopSize}
variable i loop 21
print " "
 
print "*******LOOP # $i*********"
*******LOOP # 4*********
print " "
 
variable tempvar equal ${TempStep}*${i}+${TempInitial}-${TempStep}
variable tempvar equal 25*${i}+${TempInitial}-${TempStep}
variable tempvar equal 25*4+${TempInitial}-${TempStep}
variable tempvar equal 25*4+900-${TempStep}
variable tempvar equal 25*4+900-25
variable rampup_eqavgfile string rampup_eqavg_${tempvar}.txt
variable rampup_eqavgfile string rampup_eqavg_975.txt
variable rampup_pravgfile string rampup_pravg_${tempvar}.txt
variable rampup_pravgfile string rampup_pravg_975.txt
# variable rampup_eqfile string rampup_eq_${tempvar}.txt

# NPT Equilibration run at temperature
reset_timestep 0
variable eqrunl equal 1E4 # Keep > 10000 to avoid crashing fix lines below for time avg output
fix 1 all npt temp ${tempvar} ${tempvar} 0.1 iso 1000000 1000000 1 drag 1 # npt ensemble molecular dynamics.
fix 1 all npt temp 975 ${tempvar} 0.1 iso 1000000 1000000 1 drag 1 
fix 1 all npt temp 975 975 0.1 iso 1000000 1000000 1 drag 1 

fix 2 all ave/time 1 10 10 c_mytemp c_mypress v_vmyvol v_avgEtotal file ${rampup_eqavgfile}
fix 2 all ave/time 1 10 10 c_mytemp c_mypress v_vmyvol v_avgEtotal file rampup_eqavg_975.txt
# print to file average of every 10 steps. Every 10 femptoseconds


# fix 3 all ave/time 1 10000 10000 c_mytemp c_mypress v_vmyvol v_avgEtotal file ${rampup_eqfile}
thermo 1000 # Print every "thermo" timesteps
run ${eqrunl}
run 10000
Per MPI rank memory allocation (min/avg/max) = 3.605 | 3.605 | 3.605 Mbytes
   Step          Time           Temp          PotEng         KinEng         TotEng        c_mytemp      c_mypress        Volume    
         0   0              817.70035     -88.786488      3.276578      -85.50991       817.70035      1293762.1      392.32203    
      1000   1              992.66252     -91.108461      3.9776627     -87.130798      992.66252      959707.7       395.06042    
      2000   2              882.05011     -91.134701      3.5344317     -87.600269      882.05011      870247.54      395.72289    
      3000   3              1113.6658     -91.512784      4.4625308     -87.050253      1113.6658      905666.62      394.96528    
      4000   4              978.61325     -90.208689      3.9213664     -86.287322      978.61325      1070896.4      394.04815    
      5000   5              954.85955     -90.344735      3.8261838     -86.518552      954.85955      1055804.9      394.18099    
      6000   6              1096.5018     -90.305754      4.3937536     -85.912         1096.5018      1096160.2      393.28314    
      7000   7              1004.0498     -90.439584      4.0232924     -86.416291      1004.0498      1074264.8      393.79326    
      8000   8              849.22664     -90.408438      3.4029059     -87.005532      849.22664      950465.11      394.84365    
      9000   9              854.77039     -89.316067      3.4251201     -85.890947      854.77039      1202607.6      392.98876    
     10000   10             857.3391      -90.572654      3.4354131     -87.13724       857.3391       992650.78      395.07736    
Loop time of 0.979495 on 2 procs for 10000 steps with 32 atoms

Performance: 882.087 ns/day, 0.027 hours/ns, 10209.346 timesteps/s
97.8% CPU use with 2 MPI tasks x 1 OpenMP threads

MPI task timing breakdown:
Section |  min time  |  avg time  |  max time  |%varavg| %total
---------------------------------------------------------------
Pair    | 0.65142    | 0.68724    | 0.72306    |   4.3 | 70.16
Neigh   | 0          | 0          | 0          |   0.0 |  0.00
Comm    | 0.10728    | 0.14402    | 0.18076    |   9.7 | 14.70
Output  | 0.00013894 | 0.00018761 | 0.00023627 |   0.0 |  0.02
Modify  | 0.13807    | 0.13857    | 0.13908    |   0.1 | 14.15
Other   |            | 0.009476   |            |       |  0.97

Nlocal:             16 ave          17 max          15 min
Histogram: 1 0 0 0 0 0 0 0 0 1
Nghost:            914 ave         915 max         913 min
Histogram: 1 0 0 0 0 0 0 0 0 1
Neighs:         1642.5 ave        1820 max        1465 min
Histogram: 1 0 0 0 0 0 0 0 0 1

Total # of neighbors = 3285
Ave neighs/atom = 102.65625
Neighbor list builds = 0
Dangerous builds = 0
unfix 2
# unfix 3

# NPT Production run at temperature
reset_timestep 0
variable prrunl equal 1E4
fix 3 all ave/time 1 10000 10000 c_mytemp c_mypress v_vmyvol v_avgEtotal
fix 4 all ave/time 1 10 10 c_mytemp c_mypress v_vmyvol v_avgEtotal file ${rampup_pravgfile}
fix 4 all ave/time 1 10 10 c_mytemp c_mypress v_vmyvol v_avgEtotal file rampup_pravg_975.txt
# print to file average of every 10 steps. Every 10 femptoseconds

thermo 1000 # Print every "thermo" timesteps
run ${prrunl}
run 10000
Per MPI rank memory allocation (min/avg/max) = 3.605 | 3.605 | 3.605 Mbytes
   Step          Time           Temp          PotEng         KinEng         TotEng        c_mytemp      c_mypress        Volume    
         0   0              857.3391      -90.572654      3.4354131     -87.13724       857.3391       992650.78      395.07736    
      1000   1              733.83943     -90.764917      2.9405419     -87.824375      733.83943      878001.83      396.1063     
      2000   2              1120.3025     -90.386777      4.4891244     -85.897652      1120.3025      1126967.5      393.04819    
      3000   3              1034.6537     -91.409662      4.1459239     -87.263739      1034.6537      886586.12      395.27528    
      4000   4              842.15468     -90.708184      3.3745681     -87.333616      842.15468      901989.26      395.22978    
      5000   5              889.03821     -89.293247      3.5624334     -85.730814      889.03821      1224502.7      392.72527    
      6000   6              1132.4638     -91.028295      4.5378554     -86.49044       1132.4638      995584.25      394.09589    
      7000   7              853.69        -90.429708      3.4207909     -87.008918      853.69         959264.67      394.9658     
      8000   8              975.1087      -90.504768      3.9073235     -86.597445      975.1087       1052498.2      394.19457    
      9000   9              997.76777     -90.706221      3.9981198     -86.708101      997.76777      1013008.8      394.31081    
     10000   10             1014.6245     -90.107627      4.0656657     -86.041961      1014.6245      1095894.5      393.37097    
Loop time of 1.06864 on 2 procs for 10000 steps with 32 atoms

Performance: 808.507 ns/day, 0.030 hours/ns, 9357.720 timesteps/s
97.6% CPU use with 2 MPI tasks x 1 OpenMP threads

MPI task timing breakdown:
Section |  min time  |  avg time  |  max time  |%varavg| %total
---------------------------------------------------------------
Pair    | 0.64993    | 0.6983     | 0.74667    |   5.8 | 65.34
Neigh   | 0          | 0          | 0          |   0.0 |  0.00
Comm    | 0.11035    | 0.15871    | 0.20707    |  12.1 | 14.85
Output  | 0.00013426 | 0.00016919 | 0.00020412 |   0.0 |  0.02
Modify  | 0.202      | 0.2022     | 0.2024     |   0.0 | 18.92
Other   |            | 0.00926    |            |       |  0.87

Nlocal:             16 ave          16 max          16 min
Histogram: 2 0 0 0 0 0 0 0 0 0
Nghost:            914 ave         914 max         914 min
Histogram: 2 0 0 0 0 0 0 0 0 0
Neighs:           1636 ave        1876 max        1396 min
Histogram: 1 0 0 0 0 0 0 0 0 1

Total # of neighbors = 3272
Ave neighs/atom = 102.25
Neighbor list builds = 0
Dangerous builds = 0
variable final_temp_avg equal f_3[1]
variable final_press_avg equal f_3[2]
variable final_vol_avg equal f_3[3]
variable final_etot_avg equal f_3[4]

print "${final_temp_avg} ${final_press_avg} ${final_vol_avg} ${final_etot_avg}" append ${prallfile}
print "${final_temp_avg} ${final_press_avg} ${final_vol_avg} ${final_etot_avg}" append prall.txt
974.029270807879 999822.315912609 394.507366393633 -2.71196631993592

unfix 3
unfix 4
#unfix 1

next i
jump Ramp.txt.in LoopStart
variable i loop ${LoopSize}
variable i loop 21
print " "
 
print "*******LOOP # $i*********"
*******LOOP # 5*********
print " "
 
variable tempvar equal ${TempStep}*${i}+${TempInitial}-${TempStep}
variable tempvar equal 25*${i}+${TempInitial}-${TempStep}
variable tempvar equal 25*5+${TempInitial}-${TempStep}
variable tempvar equal 25*5+900-${TempStep}
variable tempvar equal 25*5+900-25
variable rampup_eqavgfile string rampup_eqavg_${tempvar}.txt
variable rampup_eqavgfile string rampup_eqavg_1000.txt
variable rampup_pravgfile string rampup_pravg_${tempvar}.txt
variable rampup_pravgfile string rampup_pravg_1000.txt
# variable rampup_eqfile string rampup_eq_${tempvar}.txt

# NPT Equilibration run at temperature
reset_timestep 0
variable eqrunl equal 1E4 # Keep > 10000 to avoid crashing fix lines below for time avg output
fix 1 all npt temp ${tempvar} ${tempvar} 0.1 iso 1000000 1000000 1 drag 1 # npt ensemble molecular dynamics.
fix 1 all npt temp 1000 ${tempvar} 0.1 iso 1000000 1000000 1 drag 1 
fix 1 all npt temp 1000 1000 0.1 iso 1000000 1000000 1 drag 1 

fix 2 all ave/time 1 10 10 c_mytemp c_mypress v_vmyvol v_avgEtotal file ${rampup_eqavgfile}
fix 2 all ave/time 1 10 10 c_mytemp c_mypress v_vmyvol v_avgEtotal file rampup_eqavg_1000.txt
# print to file average of every 10 steps. Every 10 femptoseconds


# fix 3 all ave/time 1 10000 10000 c_mytemp c_mypress v_vmyvol v_avgEtotal file ${rampup_eqfile}
thermo 1000 # Print every "thermo" timesteps
run ${eqrunl}
run 10000
Per MPI rank memory allocation (min/avg/max) = 3.605 | 3.605 | 3.605 Mbytes
   Step          Time           Temp          PotEng         KinEng         TotEng        c_mytemp      c_mypress        Volume    
         0   0              1014.6245     -90.107627      4.0656657     -86.041961      1014.6245      1095894.5      393.37097    
      1000   1              1150.1955     -91.000665      4.6089076     -86.391757      1150.1955      992430.6       394.32649    
      2000   2              839.65247     -89.093524      3.3645416     -85.728982      839.65247      1238083.9      393.06406    
      3000   3              981.65594     -89.58802       3.9335587     -85.654461      981.65594      1191867.5      392.71565    
      4000   4              884.41699     -91.070975      3.5439159     -87.527059      884.41699      877294.92      395.94096    
      5000   5              932.115       -90.790109      3.7350449     -87.055064      932.115        967761.06      395.23163    
      6000   6              913.38492     -90.593115      3.6599923     -86.933123      913.38492      964585.63      394.82387    
      7000   7              1077.537      -90.605089      4.3177602     -86.287329      1077.537       1035475.6      393.95124    
      8000   8              783.98072     -90.387715      3.1414613     -87.246253      783.98072      963776.58      395.50058    
      9000   9              1204.4326     -90.201986      4.8262391     -85.375746      1204.4326      1196100.5      392.69481    
     10000   10             1047.0896     -89.58081       4.1957557     -85.385054      1047.0896      1226730        392.61283    
Loop time of 1.04835 on 2 procs for 10000 steps with 32 atoms

Performance: 824.149 ns/day, 0.029 hours/ns, 9538.759 timesteps/s
98.2% CPU use with 2 MPI tasks x 1 OpenMP threads

MPI task timing breakdown:
Section |  min time  |  avg time  |  max time  |%varavg| %total
---------------------------------------------------------------
Pair    | 0.60536    | 0.70096    | 0.79656    |  11.4 | 66.86
Neigh   | 0          | 0          | 0          |   0.0 |  0.00
Comm    | 0.10704    | 0.20246    | 0.29788    |  21.2 | 19.31
Output  | 0.00013607 | 0.00017766 | 0.00021926 |   0.0 |  0.02
Modify  | 0.13545    | 0.13569    | 0.13592    |   0.1 | 12.94
Other   |            | 0.009069   |            |       |  0.87

Nlocal:             16 ave          17 max          15 min
Histogram: 1 0 0 0 0 0 0 0 0 1
Nghost:            914 ave         915 max         913 min
Histogram: 1 0 0 0 0 0 0 0 0 1
Neighs:         1638.5 ave        2042 max        1235 min
Histogram: 1 0 0 0 0 0 0 0 0 1

Total # of neighbors = 3277
Ave neighs/atom = 102.40625
Neighbor list builds = 0
Dangerous builds = 0
unfix 2
# unfix 3

# NPT Production run at temperature
reset_timestep 0
variable prrunl equal 1E4
fix 3 all ave/time 1 10000 10000 c_mytemp c_mypress v_vmyvol v_avgEtotal
fix 4 all ave/time 1 10 10 c_mytemp c_mypress v_vmyvol v_avgEtotal file ${rampup_pravgfile}
fix 4 all ave/time 1 10 10 c_mytemp c_mypress v_vmyvol v_avgEtotal file rampup_pravg_1000.txt
# print to file average of every 10 steps. Every 10 femptoseconds

thermo 1000 # Print every "thermo" timesteps
run ${prrunl}
run 10000
Per MPI rank memory allocation (min/avg/max) = 3.605 | 3.605 | 3.605 Mbytes
   Step          Time           Temp          PotEng         KinEng         TotEng        c_mytemp      c_mypress        Volume    
         0   0              1047.0896     -89.58081       4.1957557     -85.385054      1047.0896      1226730        392.61283    
      1000   1              1025.3667     -90.900444      4.1087103     -86.791734      1025.3667      988589.53      394.8614     
      2000   2              934.37039     -90.750859      3.7440824     -87.006776      934.37039      939904.91      395.14565    
      3000   3              1192.137      -92.526503      4.7769699     -87.749533      1192.137       758328.09      396.32169    
      4000   4              1082.6792     -91.675289      4.3383654     -87.336923      1082.6792      831625.83      395.87561    
      5000   5              1007.462      -91.185921      4.036965      -87.148956      1007.462       900114.28      395.50834    
      6000   6              850.66507     -90.395447      3.4086698     -86.986777      850.66507      977713.51      395.07931    
      7000   7              905.66771     -89.632804      3.6290689     -86.003735      905.66771      1149114        393.49805    
      8000   8              919.49943     -90.284913      3.6844935     -86.600419      919.49943      1059401.3      394.40956    
      9000   9              844.64988     -90.512206      3.3845666     -87.127639      844.64988      936966.23      395.3648     
     10000   10             843.42942     -91.210972      3.3796761     -87.831296      843.42942      834551.56      396.46262    
Loop time of 1.06743 on 2 procs for 10000 steps with 32 atoms

Performance: 809.421 ns/day, 0.030 hours/ns, 9368.301 timesteps/s
98.3% CPU use with 2 MPI tasks x 1 OpenMP threads

MPI task timing breakdown:
Section |  min time  |  avg time  |  max time  |%varavg| %total
---------------------------------------------------------------
Pair    | 0.64494    | 0.69649    | 0.74803    |   6.2 | 65.25
Neigh   | 0.00015123 | 0.00016544 | 0.00017965 |   0.0 |  0.02
Comm    | 0.10864    | 0.16098    | 0.21332    |  13.0 | 15.08
Output  | 0.00021912 | 0.00054322 | 0.00086731 |   0.0 |  0.05
Modify  | 0.19866    | 0.19979    | 0.20092    |   0.3 | 18.72
Other   |            | 0.009464   |            |       |  0.89

Nlocal:             16 ave          19 max          13 min
Histogram: 1 0 0 0 0 0 0 0 0 1
Nghost:            914 ave         917 max         911 min
Histogram: 1 0 0 0 0 0 0 0 0 1
Neighs:           1644 ave        1663 max        1625 min
Histogram: 1 0 0 0 0 0 0 0 0 1

Total # of neighbors = 3288
Ave neighs/atom = 102.75
Neighbor list builds = 3
Dangerous builds = 0
variable final_temp_avg equal f_3[1]
variable final_press_avg equal f_3[2]
variable final_vol_avg equal f_3[3]
variable final_etot_avg equal f_3[4]

print "${final_temp_avg} ${final_press_avg} ${final_vol_avg} ${final_etot_avg}" append ${prallfile}
print "${final_temp_avg} ${final_press_avg} ${final_vol_avg} ${final_etot_avg}" append prall.txt
998.071847593876 999775.751037283 394.536963958906 -2.70682968256643

unfix 3
unfix 4
#unfix 1

next i
jump Ramp.txt.in LoopStart
variable i loop ${LoopSize}
variable i loop 21
print " "
 
print "*******LOOP # $i*********"
*******LOOP # 6*********
print " "
 
variable tempvar equal ${TempStep}*${i}+${TempInitial}-${TempStep}
variable tempvar equal 25*${i}+${TempInitial}-${TempStep}
variable tempvar equal 25*6+${TempInitial}-${TempStep}
variable tempvar equal 25*6+900-${TempStep}
variable tempvar equal 25*6+900-25
variable rampup_eqavgfile string rampup_eqavg_${tempvar}.txt
variable rampup_eqavgfile string rampup_eqavg_1025.txt
variable rampup_pravgfile string rampup_pravg_${tempvar}.txt
variable rampup_pravgfile string rampup_pravg_1025.txt
# variable rampup_eqfile string rampup_eq_${tempvar}.txt

# NPT Equilibration run at temperature
reset_timestep 0
variable eqrunl equal 1E4 # Keep > 10000 to avoid crashing fix lines below for time avg output
fix 1 all npt temp ${tempvar} ${tempvar} 0.1 iso 1000000 1000000 1 drag 1 # npt ensemble molecular dynamics.
fix 1 all npt temp 1025 ${tempvar} 0.1 iso 1000000 1000000 1 drag 1 
fix 1 all npt temp 1025 1025 0.1 iso 1000000 1000000 1 drag 1 

fix 2 all ave/time 1 10 10 c_mytemp c_mypress v_vmyvol v_avgEtotal file ${rampup_eqavgfile}
fix 2 all ave/time 1 10 10 c_mytemp c_mypress v_vmyvol v_avgEtotal file rampup_eqavg_1025.txt
# print to file average of every 10 steps. Every 10 femptoseconds


# fix 3 all ave/time 1 10000 10000 c_mytemp c_mypress v_vmyvol v_avgEtotal file ${rampup_eqfile}
thermo 1000 # Print every "thermo" timesteps
run ${eqrunl}
run 10000
Per MPI rank memory allocation (min/avg/max) = 3.605 | 3.605 | 3.605 Mbytes
   Step          Time           Temp          PotEng         KinEng         TotEng        c_mytemp      c_mypress        Volume    
         0   0              843.42942     -91.210972      3.3796761     -87.831296      843.42942      834551.56      396.46262    
      1000   1              892.34532     -90.129247      3.5756853     -86.553562      892.34532      1034655        394.76085    
      2000   2              1014.6354     -91.383631      4.0657096     -87.317921      1014.6354      805902.2       396.21869    
      3000   3              1025.5401     -90.523075      4.1094052     -86.41367       1025.5401      1028910.3      394.44455    
      4000   4              894.15127     -90.351786      3.5829218     -86.768864      894.15127      951311.1       394.97526    
      5000   5              951.06696     -91.027815      3.8109867     -87.216829      951.06696      842389.44      395.90299    
      6000   6              1115.5262     -90.359836      4.4699855     -85.88985       1115.5262      1084098.3      393.7922     
      7000   7              1047.4449     -91.094445      4.1971792     -86.897266      1047.4449      907783.16      395.17369    
      8000   8              984.66266     -90.706142      3.9456068     -86.760535      984.66266      978463.37      395.20979    
      9000   9              1110.8307     -91.086246      4.4511701     -86.635076      1110.8307      955379         394.79199    
     10000   10             1056.1867     -90.752767      4.2322084     -86.520558      1056.1867      950426.82      394.76859    
Loop time of 1.02075 on 2 procs for 10000 steps with 32 atoms

Performance: 846.435 ns/day, 0.028 hours/ns, 9796.701 timesteps/s
97.8% CPU use with 2 MPI tasks x 1 OpenMP threads

MPI task timing breakdown:
Section |  min time  |  avg time  |  max time  |%varavg| %total
---------------------------------------------------------------
Pair    | 0.64504    | 0.70402    | 0.76301    |   7.0 | 68.97
Neigh   | 0          | 0          | 0          |   0.0 |  0.00
Comm    | 0.10778    | 0.16691    | 0.22604    |  14.5 | 16.35
Output  | 0.00012755 | 0.00016564 | 0.00020373 |   0.0 |  0.02
Modify  | 0.14029    | 0.1404     | 0.14051    |   0.0 | 13.75
Other   |            | 0.009259   |            |       |  0.91

Nlocal:             16 ave          16 max          16 min
Histogram: 2 0 0 0 0 0 0 0 0 0
Nghost:            914 ave         914 max         914 min
Histogram: 2 0 0 0 0 0 0 0 0 0
Neighs:         1639.5 ave        1893 max        1386 min
Histogram: 1 0 0 0 0 0 0 0 0 1

Total # of neighbors = 3279
Ave neighs/atom = 102.46875
Neighbor list builds = 0
Dangerous builds = 0
unfix 2
# unfix 3

# NPT Production run at temperature
reset_timestep 0
variable prrunl equal 1E4
fix 3 all ave/time 1 10000 10000 c_mytemp c_mypress v_vmyvol v_avgEtotal
fix 4 all ave/time 1 10 10 c_mytemp c_mypress v_vmyvol v_avgEtotal file ${rampup_pravgfile}
fix 4 all ave/time 1 10 10 c_mytemp c_mypress v_vmyvol v_avgEtotal file rampup_pravg_1025.txt
# print to file average of every 10 steps. Every 10 femptoseconds

thermo 1000 # Print every "thermo" timesteps
run ${prrunl}
run 10000
Per MPI rank memory allocation (min/avg/max) = 3.605 | 3.605 | 3.605 Mbytes
   Step          Time           Temp          PotEng         KinEng         TotEng        c_mytemp      c_mypress        Volume    
         0   0              1056.1867     -90.752767      4.2322084     -86.520558      1056.1867      950426.82      394.76859    
      1000   1              1134.1113     -90.938552      4.5444572     -86.394095      1134.1113      994340.9       394.58563    
      2000   2              1173.6987     -91.447172      4.7030865     -86.744086      1173.6987      905725.72      395.0392     
      3000   3              897.17018     -89.893006      3.5950188     -86.297987      897.17018      1031630.4      394.37628    
      4000   4              1181.7534     -91.292057      4.7353623     -86.556695      1181.7534      935683.53      394.58927    
      5000   5              890.67836     -91.227798      3.5690056     -87.658793      890.67836      824952.57      396.5453     
      6000   6              917.33718     -91.105443      3.6758293     -87.429614      917.33718      873291.67      396.02922    
      7000   7              960.75161     -90.925017      3.8497937     -87.075223      960.75161      874152.59      395.56942    
      8000   8              892.55183     -90.635295      3.5765128     -87.058782      892.55183      927807.14      395.44691    
      9000   9              974.54874     -90.145993      3.9050797     -86.240913      974.54874      1082264.2      394.04846    
     10000   10             952.11324     -90.371254      3.8151791     -86.556075      952.11324      987510.65      394.68118    
Loop time of 1.2041 on 2 procs for 10000 steps with 32 atoms

Performance: 717.546 ns/day, 0.033 hours/ns, 8304.934 timesteps/s
97.7% CPU use with 2 MPI tasks x 1 OpenMP threads

MPI task timing breakdown:
Section |  min time  |  avg time  |  max time  |%varavg| %total
---------------------------------------------------------------
Pair    | 0.63153    | 0.75207    | 0.87261    |  13.9 | 62.46
Neigh   | 0          | 0          | 0          |   0.0 |  0.00
Comm    | 0.11563    | 0.2352     | 0.35478    |  24.7 | 19.53
Output  | 0.00013141 | 0.00016923 | 0.00020705 |   0.0 |  0.01
Modify  | 0.20671    | 0.20691    | 0.20711    |   0.0 | 17.18
Other   |            | 0.009753   |            |       |  0.81

Nlocal:             16 ave          18 max          14 min
Histogram: 1 0 0 0 0 0 0 0 0 1
Nghost:            914 ave         916 max         912 min
Histogram: 1 0 0 0 0 0 0 0 0 1
Neighs:           1649 ave        2171 max        1127 min
Histogram: 1 0 0 0 0 0 0 0 0 1

Total # of neighbors = 3298
Ave neighs/atom = 103.0625
Neighbor list builds = 0
Dangerous builds = 0
variable final_temp_avg equal f_3[1]
variable final_press_avg equal f_3[2]
variable final_vol_avg equal f_3[3]
variable final_etot_avg equal f_3[4]

print "${final_temp_avg} ${final_press_avg} ${final_vol_avg} ${final_etot_avg}" append ${prallfile}
print "${final_temp_avg} ${final_press_avg} ${final_vol_avg} ${final_etot_avg}" append prall.txt
1023.52398856087 999810.360378646 394.598142420291 -2.70263258764683

unfix 3
unfix 4
#unfix 1

next i
jump Ramp.txt.in LoopStart
variable i loop ${LoopSize}
variable i loop 21
print " "
 
print "*******LOOP # $i*********"
*******LOOP # 7*********
print " "
 
variable tempvar equal ${TempStep}*${i}+${TempInitial}-${TempStep}
variable tempvar equal 25*${i}+${TempInitial}-${TempStep}
variable tempvar equal 25*7+${TempInitial}-${TempStep}
variable tempvar equal 25*7+900-${TempStep}
variable tempvar equal 25*7+900-25
variable rampup_eqavgfile string rampup_eqavg_${tempvar}.txt
variable rampup_eqavgfile string rampup_eqavg_1050.txt
variable rampup_pravgfile string rampup_pravg_${tempvar}.txt
variable rampup_pravgfile string rampup_pravg_1050.txt
# variable rampup_eqfile string rampup_eq_${tempvar}.txt

# NPT Equilibration run at temperature
reset_timestep 0
variable eqrunl equal 1E4 # Keep > 10000 to avoid crashing fix lines below for time avg output
fix 1 all npt temp ${tempvar} ${tempvar} 0.1 iso 1000000 1000000 1 drag 1 # npt ensemble molecular dynamics.
fix 1 all npt temp 1050 ${tempvar} 0.1 iso 1000000 1000000 1 drag 1 
fix 1 all npt temp 1050 1050 0.1 iso 1000000 1000000 1 drag 1 

fix 2 all ave/time 1 10 10 c_mytemp c_mypress v_vmyvol v_avgEtotal file ${rampup_eqavgfile}
fix 2 all ave/time 1 10 10 c_mytemp c_mypress v_vmyvol v_avgEtotal file rampup_eqavg_1050.txt
# print to file average of every 10 steps. Every 10 femptoseconds


# fix 3 all ave/time 1 10000 10000 c_mytemp c_mypress v_vmyvol v_avgEtotal file ${rampup_eqfile}
thermo 1000 # Print every "thermo" timesteps
run ${eqrunl}
run 10000
Per MPI rank memory allocation (min/avg/max) = 3.605 | 3.605 | 3.605 Mbytes
   Step          Time           Temp          PotEng         KinEng         TotEng        c_mytemp      c_mypress        Volume    
         0   0              952.11324     -90.371254      3.8151791     -86.556075      952.11324      987510.65      394.68118    
      1000   1              1093.1841     -89.829786      4.3804591     -85.449326      1093.1841      1145718.5      393.35846    
      2000   2              1030.3024     -90.154551      4.1284881     -86.026062      1030.3024      1047828.9      394.13904    
      3000   3              1052.0814     -90.233086      4.2157581     -86.017328      1052.0814      1031293.2      394.10086    
      4000   4              1051.4183     -90.756289      4.2131009     -86.543188      1051.4183      964947.87      395.09257    
      5000   5              949.40308     -90.755249      3.8043194     -86.950929      949.40308      922266.13      395.42146    
      6000   6              1107.7893     -90.796917      4.438983      -86.357934      1107.7893      940410.74      394.76574    
      7000   7              1097.1407     -90.653137      4.3963135     -86.256823      1097.1407      1011263.3      394.53412    
      8000   8              1076.5092     -90.515167      4.3136417     -86.201525      1076.5092      1038139.1      394.52988    
      9000   9              1002.9619     -89.772342      4.0189332     -85.753409      1002.9619      1076027.7      393.806      
     10000   10             1014.5994     -90.483591      4.0655653     -86.418025      1014.5994      968266.96      394.56849    
Loop time of 0.995894 on 2 procs for 10000 steps with 32 atoms

Performance: 867.562 ns/day, 0.028 hours/ns, 10041.227 timesteps/s
97.4% CPU use with 2 MPI tasks x 1 OpenMP threads

MPI task timing breakdown:
Section |  min time  |  avg time  |  max time  |%varavg| %total
---------------------------------------------------------------
Pair    | 0.65333    | 0.68996    | 0.72658    |   4.4 | 69.28
Neigh   | 0          | 0          | 0          |   0.0 |  0.00
Comm    | 0.11869    | 0.153      | 0.18732    |   8.8 | 15.36
Output  | 0.00021361 | 0.00051149 | 0.00080937 |   0.0 |  0.05
Modify  | 0.14121    | 0.14256    | 0.14391    |   0.4 | 14.31
Other   |            | 0.009862   |            |       |  0.99

Nlocal:             16 ave          20 max          12 min
Histogram: 1 0 0 0 0 0 0 0 0 1
Nghost:            914 ave         918 max         910 min
Histogram: 1 0 0 0 0 0 0 0 0 1
Neighs:         1642.5 ave        1797 max        1488 min
Histogram: 1 0 0 0 0 0 0 0 0 1

Total # of neighbors = 3285
Ave neighs/atom = 102.65625
Neighbor list builds = 0
Dangerous builds = 0
unfix 2
# unfix 3

# NPT Production run at temperature
reset_timestep 0
variable prrunl equal 1E4
fix 3 all ave/time 1 10000 10000 c_mytemp c_mypress v_vmyvol v_avgEtotal
fix 4 all ave/time 1 10 10 c_mytemp c_mypress v_vmyvol v_avgEtotal file ${rampup_pravgfile}
fix 4 all ave/time 1 10 10 c_mytemp c_mypress v_vmyvol v_avgEtotal file rampup_pravg_1050.txt
# print to file average of every 10 steps. Every 10 femptoseconds

thermo 1000 # Print every "thermo" timesteps
run ${prrunl}
run 10000
Per MPI rank memory allocation (min/avg/max) = 3.605 | 3.605 | 3.605 Mbytes
   Step          Time           Temp          PotEng         KinEng         TotEng        c_mytemp      c_mypress        Volume    
         0   0              1014.5994     -90.483591      4.0655653     -86.418025      1014.5994      968266.96      394.56849    
      1000   1              921.99531     -89.579908      3.6944947     -85.885413      921.99531      1102245        394.01207    
      2000   2              1023.6366     -90.25554       4.101778      -86.153762      1023.6366      1053313.7      394.4846     
      3000   3              1265.1212     -91.4237        5.0694222     -86.354278      1265.1212      940161.11      394.80951    
      4000   4              911.51196     -91.261718      3.6524872     -87.609231      911.51196      778787.03      396.86392    
      5000   5              1095.1845     -90.568466      4.3884748     -86.179991      1095.1845      987884.09      394.57665    
      6000   6              1006.03       -90.292053      4.0312273     -86.260826      1006.03        1015832        394.42619    
      7000   7              961.88494     -89.772604      3.854335      -85.918269      961.88494      1121311.8      394.11788    
      8000   8              1143.3669     -91.263387      4.5815447     -86.681842      1143.3669      915745.08      395.18644    
      9000   9              1025.603      -91.2609        4.1096572     -87.151242      1025.603       835644.65      396.10678    
     10000   10             1013.471      -90.370639      4.0610438     -86.309595      1013.471       959376.6       394.96578    
Loop time of 1.08933 on 2 procs for 10000 steps with 32 atoms

Performance: 793.145 ns/day, 0.030 hours/ns, 9179.915 timesteps/s
97.9% CPU use with 2 MPI tasks x 1 OpenMP threads

MPI task timing breakdown:
Section |  min time  |  avg time  |  max time  |%varavg| %total
---------------------------------------------------------------
Pair    | 0.59836    | 0.68902    | 0.77967    |  10.9 | 63.25
Neigh   | 0          | 0          | 0          |   0.0 |  0.00
Comm    | 0.10535    | 0.19559    | 0.28583    |  20.4 | 17.95
Output  | 0.00012605 | 0.00016361 | 0.00020118 |   0.0 |  0.02
Modify  | 0.19531    | 0.19537    | 0.19542    |   0.0 | 17.93
Other   |            | 0.009202   |            |       |  0.84

Nlocal:             16 ave          17 max          15 min
Histogram: 1 0 0 0 0 0 0 0 0 1
Nghost:            914 ave         915 max         913 min
Histogram: 1 0 0 0 0 0 0 0 0 1
Neighs:         1642.5 ave        2074 max        1211 min
Histogram: 1 0 0 0 0 0 0 0 0 1

Total # of neighbors = 3285
Ave neighs/atom = 102.65625
Neighbor list builds = 0
Dangerous builds = 0
variable final_temp_avg equal f_3[1]
variable final_press_avg equal f_3[2]
variable final_vol_avg equal f_3[3]
variable final_etot_avg equal f_3[4]

print "${final_temp_avg} ${final_press_avg} ${final_vol_avg} ${final_etot_avg}" append ${prallfile}
print "${final_temp_avg} ${final_press_avg} ${final_vol_avg} ${final_etot_avg}" append prall.txt
1047.57387257036 1000021.08767486 394.714124498919 -2.69806620385287

unfix 3
unfix 4
#unfix 1

next i
jump Ramp.txt.in LoopStart
variable i loop ${LoopSize}
variable i loop 21
print " "
 
print "*******LOOP # $i*********"
*******LOOP # 8*********
print " "
 
variable tempvar equal ${TempStep}*${i}+${TempInitial}-${TempStep}
variable tempvar equal 25*${i}+${TempInitial}-${TempStep}
variable tempvar equal 25*8+${TempInitial}-${TempStep}
variable tempvar equal 25*8+900-${TempStep}
variable tempvar equal 25*8+900-25
variable rampup_eqavgfile string rampup_eqavg_${tempvar}.txt
variable rampup_eqavgfile string rampup_eqavg_1075.txt
variable rampup_pravgfile string rampup_pravg_${tempvar}.txt
variable rampup_pravgfile string rampup_pravg_1075.txt
# variable rampup_eqfile string rampup_eq_${tempvar}.txt

# NPT Equilibration run at temperature
reset_timestep 0
variable eqrunl equal 1E4 # Keep > 10000 to avoid crashing fix lines below for time avg output
fix 1 all npt temp ${tempvar} ${tempvar} 0.1 iso 1000000 1000000 1 drag 1 # npt ensemble molecular dynamics.
fix 1 all npt temp 1075 ${tempvar} 0.1 iso 1000000 1000000 1 drag 1 
fix 1 all npt temp 1075 1075 0.1 iso 1000000 1000000 1 drag 1 

fix 2 all ave/time 1 10 10 c_mytemp c_mypress v_vmyvol v_avgEtotal file ${rampup_eqavgfile}
fix 2 all ave/time 1 10 10 c_mytemp c_mypress v_vmyvol v_avgEtotal file rampup_eqavg_1075.txt
# print to file average of every 10 steps. Every 10 femptoseconds


# fix 3 all ave/time 1 10000 10000 c_mytemp c_mypress v_vmyvol v_avgEtotal file ${rampup_eqfile}
thermo 1000 # Print every "thermo" timesteps
run ${eqrunl}
run 10000
Per MPI rank memory allocation (min/avg/max) = 3.605 | 3.605 | 3.605 Mbytes
   Step          Time           Temp          PotEng         KinEng         TotEng        c_mytemp      c_mypress        Volume    
         0   0              1013.471      -90.370639      4.0610438     -86.309595      1013.471       959376.6       394.96578    
      1000   1              967.95795     -90.129099      3.87867       -86.250429      967.95795      989158.46      394.68387    
      2000   2              1019.4518     -89.622289      4.0850092     -85.53728       1019.4518      1124496        393.55648    
      3000   3              1152.4722     -90.672734      4.6180303     -86.054703      1152.4722      968748.04      394.41358    
      4000   4              1173.0904     -91.639387      4.7006491     -86.938738      1173.0904      831249.33      396.06403    
      5000   5              1068.9134     -89.772137      4.283205      -85.488932      1068.9134      1136834.2      393.41671    
      6000   6              1225.0181     -91.357201      4.9087267     -86.448474      1225.0181      903020.09      395.15408    
      7000   7              1186.2165     -90.058001      4.753246      -85.304755      1186.2165      1090194.1      393.43062    
      8000   8              1139.0969     -90.588782      4.5644349     -86.024347      1139.0969      1027626.2      394.4842     
      9000   9              1096.0999     -90.470352      4.3921429     -86.078209      1096.0999      1043533        394.50535    
     10000   10             1013.5556     -89.571701      4.0613828     -85.510318      1013.5556      1117671.9      393.71615    
Loop time of 1.02758 on 2 procs for 10000 steps with 32 atoms

Performance: 840.811 ns/day, 0.029 hours/ns, 9731.613 timesteps/s
98.0% CPU use with 2 MPI tasks x 1 OpenMP threads

MPI task timing breakdown:
Section |  min time  |  avg time  |  max time  |%varavg| %total
---------------------------------------------------------------
Pair    | 0.66047    | 0.7129     | 0.76533    |   6.2 | 69.38
Neigh   | 0          | 0          | 0          |   0.0 |  0.00
Comm    | 0.11173    | 0.16457    | 0.21742    |  13.0 | 16.02
Output  | 0.00013099 | 0.00016883 | 0.00020667 |   0.0 |  0.02
Modify  | 0.1402     | 0.14063    | 0.14105    |   0.1 | 13.69
Other   |            | 0.009308   |            |       |  0.91

Nlocal:             16 ave          16 max          16 min
Histogram: 2 0 0 0 0 0 0 0 0 0
Nghost:            914 ave         914 max         914 min
Histogram: 2 0 0 0 0 0 0 0 0 0
Neighs:         1643.5 ave        1874 max        1413 min
Histogram: 1 0 0 0 0 0 0 0 0 1

Total # of neighbors = 3287
Ave neighs/atom = 102.71875
Neighbor list builds = 0
Dangerous builds = 0
unfix 2
# unfix 3

# NPT Production run at temperature
reset_timestep 0
variable prrunl equal 1E4
fix 3 all ave/time 1 10000 10000 c_mytemp c_mypress v_vmyvol v_avgEtotal
fix 4 all ave/time 1 10 10 c_mytemp c_mypress v_vmyvol v_avgEtotal file ${rampup_pravgfile}
fix 4 all ave/time 1 10 10 c_mytemp c_mypress v_vmyvol v_avgEtotal file rampup_pravg_1075.txt
# print to file average of every 10 steps. Every 10 femptoseconds

thermo 1000 # Print every "thermo" timesteps
run ${prrunl}
run 10000
Per MPI rank memory allocation (min/avg/max) = 3.605 | 3.605 | 3.605 Mbytes
   Step          Time           Temp          PotEng         KinEng         TotEng        c_mytemp      c_mypress        Volume    
         0   0              1013.5556     -89.571701      4.0613828     -85.510318      1013.5556      1117671.9      393.71615    
      1000   1              1124.7404     -90.676169      4.5069073     -86.169262      1124.7404      988970.1       394.56067    
      2000   2              1121.1601     -90.721818      4.4925607     -86.229258      1121.1601      964137.76      394.81521    
      3000   3              1094.5263     -90.64279       4.3858375     -86.256953      1094.5263      969508.02      394.78478    
      4000   4              1159.0061     -90.584066      4.6442123     -85.939854      1159.0061      1004955.5      394.26085    
      5000   5              1104.5212     -90.92439       4.4258876     -86.498503      1104.5212      906523.1       395.1671     
      6000   6              1234.0641     -90.788626      4.9449743     -85.843652      1234.0641      1008471.2      394.13473    
      7000   7              1018.3825     -90.783187      4.0807244     -86.702463      1018.3825      926573.28      395.64139    
      8000   8              1229.9306     -91.238446      4.9284111     -86.310035      1229.9306      927779.46      395.02765    
      9000   9              1139.1288     -90.50598       4.5645625     -85.941417      1139.1288      1027592.6      394.43693    
     10000   10             903.87727     -89.500386      3.6218945     -85.878492      903.87727      1052785.9      394.28043    
Loop time of 1.15093 on 2 procs for 10000 steps with 32 atoms

Performance: 750.694 ns/day, 0.032 hours/ns, 8688.589 timesteps/s
97.1% CPU use with 2 MPI tasks x 1 OpenMP threads

MPI task timing breakdown:
Section |  min time  |  avg time  |  max time  |%varavg| %total
---------------------------------------------------------------
Pair    | 0.64519    | 0.73361    | 0.82204    |  10.3 | 63.74
Neigh   | 4.5045e-05 | 5.3797e-05 | 6.2549e-05 |   0.0 |  0.00
Comm    | 0.11207    | 0.20031    | 0.28855    |  19.7 | 17.40
Output  | 0.00021423 | 0.00054418 | 0.00087414 |   0.0 |  0.05
Modify  | 0.20577    | 0.20649    | 0.20722    |   0.2 | 17.94
Other   |            | 0.009917   |            |       |  0.86

Nlocal:             16 ave          17 max          15 min
Histogram: 1 0 0 0 0 0 0 0 0 1
Nghost:            914 ave         915 max         913 min
Histogram: 1 0 0 0 0 0 0 0 0 1
Neighs:           1645 ave        2059 max        1231 min
Histogram: 1 0 0 0 0 0 0 0 0 1

Total # of neighbors = 3290
Ave neighs/atom = 102.8125
Neighbor list builds = 1
Dangerous builds = 0
variable final_temp_avg equal f_3[1]
variable final_press_avg equal f_3[2]
variable final_vol_avg equal f_3[3]
variable final_etot_avg equal f_3[4]

print "${final_temp_avg} ${final_press_avg} ${final_vol_avg} ${final_etot_avg}" append ${prallfile}
print "${final_temp_avg} ${final_press_avg} ${final_vol_avg} ${final_etot_avg}" append prall.txt
1073.36676590691 999904.754422581 394.697294676658 -2.6921400910311

unfix 3
unfix 4
#unfix 1

next i
jump Ramp.txt.in LoopStart
variable i loop ${LoopSize}
variable i loop 21
print " "
 
print "*******LOOP # $i*********"
*******LOOP # 9*********
print " "
 
variable tempvar equal ${TempStep}*${i}+${TempInitial}-${TempStep}
variable tempvar equal 25*${i}+${TempInitial}-${TempStep}
variable tempvar equal 25*9+${TempInitial}-${TempStep}
variable tempvar equal 25*9+900-${TempStep}
variable tempvar equal 25*9+900-25
variable rampup_eqavgfile string rampup_eqavg_${tempvar}.txt
variable rampup_eqavgfile string rampup_eqavg_1100.txt
variable rampup_pravgfile string rampup_pravg_${tempvar}.txt
variable rampup_pravgfile string rampup_pravg_1100.txt
# variable rampup_eqfile string rampup_eq_${tempvar}.txt

# NPT Equilibration run at temperature
reset_timestep 0
variable eqrunl equal 1E4 # Keep > 10000 to avoid crashing fix lines below for time avg output
fix 1 all npt temp ${tempvar} ${tempvar} 0.1 iso 1000000 1000000 1 drag 1 # npt ensemble molecular dynamics.
fix 1 all npt temp 1100 ${tempvar} 0.1 iso 1000000 1000000 1 drag 1 
fix 1 all npt temp 1100 1100 0.1 iso 1000000 1000000 1 drag 1 

fix 2 all ave/time 1 10 10 c_mytemp c_mypress v_vmyvol v_avgEtotal file ${rampup_eqavgfile}
fix 2 all ave/time 1 10 10 c_mytemp c_mypress v_vmyvol v_avgEtotal file rampup_eqavg_1100.txt
# print to file average of every 10 steps. Every 10 femptoseconds


# fix 3 all ave/time 1 10000 10000 c_mytemp c_mypress v_vmyvol v_avgEtotal file ${rampup_eqfile}
thermo 1000 # Print every "thermo" timesteps
run ${eqrunl}
run 10000
Per MPI rank memory allocation (min/avg/max) = 3.605 | 3.605 | 3.605 Mbytes
   Step          Time           Temp          PotEng         KinEng         TotEng        c_mytemp      c_mypress        Volume    
         0   0              903.87727     -89.500386      3.6218945     -85.878492      903.87727      1052785.9      394.28043    
      1000   1              1128.741      -90.289767      4.5229379     -85.766829      1128.741       1039095.7      394.20588    
      2000   2              1049.2633     -90.074607      4.2044658     -85.870141      1049.2633      1031998        394.50804    
      3000   3              1118.5797     -91.190518      4.4822208     -86.708297      1118.5797      896252.95      395.76587    
      4000   4              980.58475     -90.834088      3.9292663     -86.904822      980.58475      913100.39      396.07487    
      5000   5              1142.8315     -91.621212      4.5793993     -87.041813      1142.8315      812208.52      396.33827    
      6000   6              1143.1828     -91.688714      4.5808072     -87.107906      1143.1828      782610.81      396.59068    
      7000   7              1016.3272     -90.119177      4.0724886     -86.046688      1016.3272      992801.44      394.73322    
      8000   8              1129.7542     -90.706257      4.5269981     -86.179259      1129.7542      957409.99      394.88729    
      9000   9              1110.1721     -90.896526      4.4485312     -86.447994      1110.1721      909559.85      395.32486    
     10000   10             1211.5521     -90.94239       4.8547676     -86.087623      1211.5521      967062.04      394.88038    
Loop time of 1.07641 on 2 procs for 10000 steps with 32 atoms

Performance: 802.668 ns/day, 0.030 hours/ns, 9290.144 timesteps/s
97.6% CPU use with 2 MPI tasks x 1 OpenMP threads

MPI task timing breakdown:
Section |  min time  |  avg time  |  max time  |%varavg| %total
---------------------------------------------------------------
Pair    | 0.61109    | 0.7151     | 0.81911    |  12.3 | 66.43
Neigh   | 0          | 0          | 0          |   0.0 |  0.00
Comm    | 0.1091     | 0.21294    | 0.31678    |  22.5 | 19.78
Output  | 0.00020447 | 0.00046368 | 0.00072288 |   0.0 |  0.04
Modify  | 0.13808    | 0.13833    | 0.13857    |   0.1 | 12.85
Other   |            | 0.00958    |            |       |  0.89

Nlocal:             16 ave          17 max          15 min
Histogram: 1 0 0 0 0 0 0 0 0 1
Nghost:            914 ave         915 max         913 min
Histogram: 1 0 0 0 0 0 0 0 0 1
Neighs:           1643 ave        2074 max        1212 min
Histogram: 1 0 0 0 0 0 0 0 0 1

Total # of neighbors = 3286
Ave neighs/atom = 102.6875
Neighbor list builds = 0
Dangerous builds = 0
unfix 2
# unfix 3

# NPT Production run at temperature
reset_timestep 0
variable prrunl equal 1E4
fix 3 all ave/time 1 10000 10000 c_mytemp c_mypress v_vmyvol v_avgEtotal
fix 4 all ave/time 1 10 10 c_mytemp c_mypress v_vmyvol v_avgEtotal file ${rampup_pravgfile}
fix 4 all ave/time 1 10 10 c_mytemp c_mypress v_vmyvol v_avgEtotal file rampup_pravg_1100.txt
# print to file average of every 10 steps. Every 10 femptoseconds

thermo 1000 # Print every "thermo" timesteps
run ${prrunl}
run 10000
Per MPI rank memory allocation (min/avg/max) = 3.605 | 3.605 | 3.605 Mbytes
   Step          Time           Temp          PotEng         KinEng         TotEng        c_mytemp      c_mypress        Volume    
         0   0              1211.5521     -90.94239       4.8547676     -86.087623      1211.5521      967062.04      394.88038    
      1000   1              1065.0883     -90.630876      4.2678774     -86.362999      1065.0883      972763.43      395.24009    
      2000   2              1088.1611     -90.282251      4.3603319     -85.921919      1088.1611      1004296.9      394.63583    
      3000   3              1054.9535     -90.184537      4.2272666     -85.957271      1054.9535      1015779.3      394.69173    
      4000   4              1167.3175     -90.663732      4.6775166     -85.986215      1167.3175      978036.52      394.68381    
      5000   5              1241.3529     -90.367858      4.974181      -85.393677      1241.3529      1096400.1      393.70358    
      6000   6              1178.8812     -90.539883      4.723853      -85.81603       1178.8812      1002115.2      394.62313    
      7000   7              1000.4541     -89.828663      4.0088841     -85.819779      1000.4541      1074026.4      394.39115    
      8000   8              1269.3168     -91.255315      5.0862342     -86.169081      1269.3168      955123.22      394.90557    
      9000   9              915.43338     -90.652309      3.6682006     -86.984108      915.43338      850814.13      396.44052    
     10000   10             925.33232     -91.303626      3.7078663     -87.59576       925.33232      734901.55      397.35685    
Loop time of 1.08441 on 2 procs for 10000 steps with 32 atoms

Performance: 796.744 ns/day, 0.030 hours/ns, 9221.577 timesteps/s
97.4% CPU use with 2 MPI tasks x 1 OpenMP threads

MPI task timing breakdown:
Section |  min time  |  avg time  |  max time  |%varavg| %total
---------------------------------------------------------------
Pair    | 0.63337    | 0.69952    | 0.76568    |   7.9 | 64.51
Neigh   | 0          | 0          | 0          |   0.0 |  0.00
Comm    | 0.10963    | 0.17567    | 0.24171    |  15.8 | 16.20
Output  | 0.00013577 | 0.00017423 | 0.00021269 |   0.0 |  0.02
Modify  | 0.1996     | 0.1997     | 0.19979    |   0.0 | 18.42
Other   |            | 0.009349   |            |       |  0.86

Nlocal:             16 ave          16 max          16 min
Histogram: 2 0 0 0 0 0 0 0 0 0
Nghost:            914 ave         914 max         914 min
Histogram: 2 0 0 0 0 0 0 0 0 0
Neighs:         1640.5 ave        1936 max        1345 min
Histogram: 1 0 0 0 0 0 0 0 0 1

Total # of neighbors = 3281
Ave neighs/atom = 102.53125
Neighbor list builds = 0
Dangerous builds = 0
variable final_temp_avg equal f_3[1]
variable final_press_avg equal f_3[2]
variable final_vol_avg equal f_3[3]
variable final_etot_avg equal f_3[4]

print "${final_temp_avg} ${final_press_avg} ${final_vol_avg} ${final_etot_avg}" append ${prallfile}
print "${final_temp_avg} ${final_press_avg} ${final_vol_avg} ${final_etot_avg}" append prall.txt
1097.74229901696 999791.780748176 394.79418646837 -2.68855899404325

unfix 3
unfix 4
#unfix 1

next i
jump Ramp.txt.in LoopStart
variable i loop ${LoopSize}
variable i loop 21
print " "
 
print "*******LOOP # $i*********"
*******LOOP # 10*********
print " "
 
variable tempvar equal ${TempStep}*${i}+${TempInitial}-${TempStep}
variable tempvar equal 25*${i}+${TempInitial}-${TempStep}
variable tempvar equal 25*10+${TempInitial}-${TempStep}
variable tempvar equal 25*10+900-${TempStep}
variable tempvar equal 25*10+900-25
[...]
Modify  | 0.12634    | 0.12666    | 0.12697    |   0.1 | 18.09
Other   |            | 0.008278   |            |       |  1.18

Nlocal:             16 ave          18 max          14 min
Histogram: 1 0 0 0 0 0 0 0 0 1
Nghost:          687.5 ave         693 max         682 min
Histogram: 1 0 0 0 0 0 0 0 0 1
Neighs:            998 ave        1112 max         884 min
Histogram: 1 0 0 0 0 0 0 0 0 1

Total # of neighbors = 1996
Ave neighs/atom = 62.375
Neighbor list builds = 191
Dangerous builds = 0
unfix 2
# unfix 3

# NPT Production run at temperature
reset_timestep 0
variable prrunl equal 1E4
fix 3 all ave/time 1 10000 10000 c_mytemp c_mypress v_vmyvol v_avgEtotal
fix 4 all ave/time 1 10 10 c_mytemp c_mypress v_vmyvol v_avgEtotal file ${rampdown_pravgfile}
fix 4 all ave/time 1 10 10 c_mytemp c_mypress v_vmyvol v_avgEtotal file rampdown_pravg_1550.txt
# print to file average of every 10 steps. Every 10 femptoseconds

thermo 1000 # Print every "thermo" timesteps
run ${prrunl}
run 10000
Per MPI rank memory allocation (min/avg/max) = 3.707 | 3.707 | 3.707 Mbytes
   Step          Time           Temp          PotEng         KinEng         TotEng        c_mytemp      c_mypress        Volume    
         0   0              1644.4648     -97.357411      6.5894764     -90.767935      1644.4648      5343.8388      647.53051    
      1000   1              1393.558      -97.293062      5.5840768     -91.708986      1393.558       11393.147      638.01604    
      2000   2              1397.7443     -96.595258      5.6008515     -90.994406      1397.7443      6482.5767      645.64047    
      3000   3              1433.2459     -96.656955      5.7431088     -90.913846      1433.2459      5940.7737      632.11629    
      4000   4              1638.5405     -98.385241      6.5657376     -91.819504      1638.5405     -509.61479      638.60351    
      5000   5              1430.4278     -97.569624      5.7318166     -91.837807      1430.4278     -10322.669      642.69533    
      6000   6              1575.242      -97.746142      6.3120964     -91.434045      1575.242      -2735.2189      641.20605    
      7000   7              1355.1604     -97.265489      5.4302152     -91.835274      1355.1604      12964.944      628.54364    
      8000   8              1601.8901     -96.905238      6.4188769     -90.486361      1601.8901     -6691.2313      656.35566    
      9000   9              1472.4348     -96.721065      5.9001413     -90.820924      1472.4348      4655.5252      631.13975    
     10000   10             1645.6096     -96.931704      6.594064      -90.33764       1645.6096     -4187.5953      637.779      
Loop time of 0.755193 on 2 procs for 10000 steps with 32 atoms

Performance: 1144.079 ns/day, 0.021 hours/ns, 13241.651 timesteps/s
97.2% CPU use with 2 MPI tasks x 1 OpenMP threads

MPI task timing breakdown:
Section |  min time  |  avg time  |  max time  |%varavg| %total
---------------------------------------------------------------
Pair    | 0.46147    | 0.46506    | 0.46865    |   0.5 | 61.58
Neigh   | 0.0064354  | 0.0064709  | 0.0065064  |   0.0 |  0.86
Comm    | 0.091502   | 0.095242   | 0.098981   |   1.2 | 12.61
Output  | 0.00024183 | 0.00057169 | 0.00090155 |   0.0 |  0.08
Modify  | 0.17769    | 0.17917    | 0.18066    |   0.4 | 23.73
Other   |            | 0.00868    |            |       |  1.15

Nlocal:             16 ave          17 max          15 min
Histogram: 1 0 0 0 0 0 0 0 0 1
Nghost:          678.5 ave         685 max         672 min
Histogram: 1 0 0 0 0 0 0 0 0 1
Neighs:         1013.5 ave        1072 max         955 min
Histogram: 1 0 0 0 0 0 0 0 0 1

Total # of neighbors = 2027
Ave neighs/atom = 63.34375
Neighbor list builds = 191
Dangerous builds = 0
variable final_temp_avg equal f_3[1]
variable final_press_avg equal f_3[2]
variable final_vol_avg equal f_3[3]
variable final_etot_avg equal f_3[4]

print "${final_temp_avg} ${final_press_avg} ${final_vol_avg} ${final_etot_avg}" append ${prallfile}
print "${final_temp_avg} ${final_press_avg} ${final_vol_avg} ${final_etot_avg}" append prall.txt
1544.42337247364 -208.278069401221 641.640388560969 -2.84468133150703

unfix 3
unfix 4
#unfix 1

next i
jump Ramp.txt.in LoopStart2
variable i loop ${LoopSize}
variable i loop 21
print " "
 
print "*******LOOP2 # $i*********"
*******LOOP2 # 20*********
print " "
 
variable tempvar equal ${TempFinal}+${TempStep}-${TempStep}*${i}
variable tempvar equal 2000+${TempStep}-${TempStep}*${i}
variable tempvar equal 2000+25-${TempStep}*${i}
variable tempvar equal 2000+25-25*${i}
variable tempvar equal 2000+25-25*20
variable rampdown_eqavgfile string rampdown_eqavg_${tempvar}.txt
variable rampdown_eqavgfile string rampdown_eqavg_1525.txt
variable rampdown_pravgfile string rampdown_pravg_${tempvar}.txt
variable rampdown_pravgfile string rampdown_pravg_1525.txt
# variable rampup_eqfile string rampup_eq_${tempvar}.txt

# NPT Equilibration run at temperature
reset_timestep 0
variable eqrunl equal 1E4 # Keep > 10000 to avoid crashing fix lines below for time avg output
fix 1 all npt temp ${tempvar} ${tempvar} 0.1 iso 1 1 1 drag 1 # npt ensemble molecular dynamics.
fix 1 all npt temp 1525 ${tempvar} 0.1 iso 1 1 1 drag 1 
fix 1 all npt temp 1525 1525 0.1 iso 1 1 1 drag 1 
fix 2 all ave/time 1 10 10 c_mytemp c_mypress v_vmyvol v_avgEtotal file ${rampdown_eqavgfile}
fix 2 all ave/time 1 10 10 c_mytemp c_mypress v_vmyvol v_avgEtotal file rampdown_eqavg_1525.txt
# print to file average of every 10 steps. Every 10 femptoseconds
thermo 1000 # Print every "thermo" timesteps
run ${eqrunl}
run 10000
Per MPI rank memory allocation (min/avg/max) = 3.707 | 3.707 | 3.707 Mbytes
   Step          Time           Temp          PotEng         KinEng         TotEng        c_mytemp      c_mypress        Volume    
         0   0              1645.6096     -96.931704      6.594064      -90.33764       1645.6096     -4187.5953      637.779      
      1000   1              1724.2427     -97.123245      6.9091516     -90.214093      1724.2427     -1150.5017      653.70143    
      2000   2              1574.8467     -97.007232      6.3105123     -90.69672       1574.8467     -780.34557      646.804      
      3000   3              1423.0002     -97.436611      5.7020535     -91.734557      1423.0002     -1491.0972      635.75654    
      4000   4              1413.2732     -96.694224      5.6630769     -91.031147      1413.2732      6268.1132      635.45936    
      5000   5              1569.7757     -97.265215      6.2901925     -90.975022      1569.7757      1370.5557      645.82115    
      6000   6              1493.6494     -96.406216      5.9851495     -90.421066      1493.6494     -3520.5975      672.57301    
      7000   7              1412.9669     -96.150058      5.6618495     -90.488208      1412.9669     -7274.6631      662.92569    
      8000   8              1348.1082     -96.970883      5.4019565     -91.568926      1348.1082      2785.5581      636.36917    
      9000   9              1620.759      -97.78775       6.4944857     -91.293265      1620.759       5285.1818      622.97777    
     10000   10             1734.2335     -98.428801      6.9491855     -91.479615      1734.2335     -5107.8996      626.14088    
Loop time of 0.701508 on 2 procs for 10000 steps with 32 atoms

Performance: 1231.633 ns/day, 0.019 hours/ns, 14255.012 timesteps/s
97.3% CPU use with 2 MPI tasks x 1 OpenMP threads

MPI task timing breakdown:
Section |  min time  |  avg time  |  max time  |%varavg| %total
---------------------------------------------------------------
Pair    | 0.46294    | 0.46406    | 0.46518    |   0.2 | 66.15
Neigh   | 0.0063416  | 0.0063564  | 0.0063712  |   0.0 |  0.91
Comm    | 0.09552    | 0.096683   | 0.097847   |   0.4 | 13.78
Output  | 0.00017083 | 0.0002013  | 0.00023176 |   0.0 |  0.03
Modify  | 0.126      | 0.12606    | 0.12612    |   0.0 | 17.97
Other   |            | 0.008146   |            |       |  1.16

Nlocal:             16 ave          17 max          15 min
Histogram: 1 0 0 0 0 0 0 0 0 1
Nghost:          699.5 ave         703 max         696 min
Histogram: 1 0 0 0 0 0 0 0 0 1
Neighs:           1031 ave        1099 max         963 min
Histogram: 1 0 0 0 0 0 0 0 0 1

Total # of neighbors = 2062
Ave neighs/atom = 64.4375
Neighbor list builds = 188
Dangerous builds = 0
unfix 2
# unfix 3

# NPT Production run at temperature
reset_timestep 0
variable prrunl equal 1E4
fix 3 all ave/time 1 10000 10000 c_mytemp c_mypress v_vmyvol v_avgEtotal
fix 4 all ave/time 1 10 10 c_mytemp c_mypress v_vmyvol v_avgEtotal file ${rampdown_pravgfile}
fix 4 all ave/time 1 10 10 c_mytemp c_mypress v_vmyvol v_avgEtotal file rampdown_pravg_1525.txt
# print to file average of every 10 steps. Every 10 femptoseconds

thermo 1000 # Print every "thermo" timesteps
run ${prrunl}
run 10000
Per MPI rank memory allocation (min/avg/max) = 3.707 | 3.707 | 3.707 Mbytes
   Step          Time           Temp          PotEng         KinEng         TotEng        c_mytemp      c_mypress        Volume    
         0   0              1734.2335     -98.428801      6.9491855     -91.479615      1734.2335     -5107.8996      626.14088    
      1000   1              1398.9288     -96.639202      5.6055979     -91.033605      1398.9288     -448.99482      640.53657    
      2000   2              1446.8297     -97.944614      5.7975398     -92.147074      1446.8297      618.72465      623.2884     
      3000   3              1530.5623     -97.963351      6.1330617     -91.830289      1530.5623     -605.382        637.43774    
      4000   4              1617.568      -98.507754      6.4816994     -92.026055      1617.568      -3497.1366      621.21322    
      5000   5              1426.225      -96.162798      5.7149756     -90.447823      1426.225      -7639.6549      661.14126    
      6000   6              1277.5254     -95.738111      5.1191265     -90.618985      1277.5254      2447.313       661.6883     
      7000   7              1399.4657     -97.44929       5.6077492     -91.841541      1399.4657      7348.6495      621.7997     
      8000   8              1286.4385     -96.570763      5.1548421     -91.415921      1286.4385      5484.1321      632.05657    
      9000   9              1498.0541     -97.321174      6.0027996     -91.318374      1498.0541      2879.5691      643.3245     
     10000   10             1538.0581     -97.516433      6.1630979     -91.353335      1538.0581      4029.0441      624.58985    
Loop time of 0.763395 on 2 procs for 10000 steps with 32 atoms

Performance: 1131.786 ns/day, 0.021 hours/ns, 13099.375 timesteps/s
97.2% CPU use with 2 MPI tasks x 1 OpenMP threads

MPI task timing breakdown:
Section |  min time  |  avg time  |  max time  |%varavg| %total
---------------------------------------------------------------
Pair    | 0.46681    | 0.46996    | 0.47311    |   0.5 | 61.56
Neigh   | 0.006252   | 0.0063284  | 0.0064048  |   0.1 |  0.83
Comm    | 0.093004   | 0.096488   | 0.099972   |   1.1 | 12.64
Output  | 0.00014545 | 0.00019196 | 0.00023846 |   0.0 |  0.03
Modify  | 0.17991    | 0.18133    | 0.18275    |   0.3 | 23.75
Other   |            | 0.0091     |            |       |  1.19

Nlocal:             16 ave          16 max          16 min
Histogram: 2 0 0 0 0 0 0 0 0 0
Nghost:            692 ave         695 max         689 min
Histogram: 1 0 0 0 0 0 0 0 0 1
Neighs:         1021.5 ave        1027 max        1016 min
Histogram: 1 0 0 0 0 0 0 0 0 1

Total # of neighbors = 2043
Ave neighs/atom = 63.84375
Neighbor list builds = 187
Dangerous builds = 0
variable final_temp_avg equal f_3[1]
variable final_press_avg equal f_3[2]
variable final_vol_avg equal f_3[3]
variable final_etot_avg equal f_3[4]

print "${final_temp_avg} ${final_press_avg} ${final_vol_avg} ${final_etot_avg}" append ${prallfile}
print "${final_temp_avg} ${final_press_avg} ${final_vol_avg} ${final_etot_avg}" append prall.txt
1520.51532069665 -273.47480586034 637.140570328112 -2.85630806363603

unfix 3
unfix 4
#unfix 1

next i
jump Ramp.txt.in LoopStart2
variable i loop ${LoopSize}
variable i loop 21
print " "
 
print "*******LOOP2 # $i*********"
*******LOOP2 # 21*********
print " "
 
variable tempvar equal ${TempFinal}+${TempStep}-${TempStep}*${i}
variable tempvar equal 2000+${TempStep}-${TempStep}*${i}
variable tempvar equal 2000+25-${TempStep}*${i}
variable tempvar equal 2000+25-25*${i}
variable tempvar equal 2000+25-25*21
variable rampdown_eqavgfile string rampdown_eqavg_${tempvar}.txt
variable rampdown_eqavgfile string rampdown_eqavg_1500.txt
variable rampdown_pravgfile string rampdown_pravg_${tempvar}.txt
variable rampdown_pravgfile string rampdown_pravg_1500.txt
# variable rampup_eqfile string rampup_eq_${tempvar}.txt

# NPT Equilibration run at temperature
reset_timestep 0
variable eqrunl equal 1E4 # Keep > 10000 to avoid crashing fix lines below for time avg output
fix 1 all npt temp ${tempvar} ${tempvar} 0.1 iso 1 1 1 drag 1 # npt ensemble molecular dynamics.
fix 1 all npt temp 1500 ${tempvar} 0.1 iso 1 1 1 drag 1 
fix 1 all npt temp 1500 1500 0.1 iso 1 1 1 drag 1 
fix 2 all ave/time 1 10 10 c_mytemp c_mypress v_vmyvol v_avgEtotal file ${rampdown_eqavgfile}
fix 2 all ave/time 1 10 10 c_mytemp c_mypress v_vmyvol v_avgEtotal file rampdown_eqavg_1500.txt
# print to file average of every 10 steps. Every 10 femptoseconds
thermo 1000 # Print every "thermo" timesteps
run ${eqrunl}
run 10000
Per MPI rank memory allocation (min/avg/max) = 3.707 | 3.707 | 3.707 Mbytes
   Step          Time           Temp          PotEng         KinEng         TotEng        c_mytemp      c_mypress        Volume    
         0   0              1538.0581     -97.516433      6.1630979     -91.353335      1538.0581      4029.0441      624.58985    
      1000   1              1470.5255     -97.301169      5.8924906     -91.408679      1470.5255      1670.6299      633.736      
      2000   2              1404.522      -97.04039       5.6280102     -91.41238       1404.522       5081.7932      641.84975    
      3000   3              1433.0236     -97.023483      5.742218      -91.281265      1433.0236      7431.2537      636.60333    
      4000   4              1461.6153     -97.400368      5.8567869     -91.543581      1461.6153      7150.5343      628.36355    
      5000   5              1246.5893     -96.990937      4.9951637     -91.995773      1246.5893      4969.2473      643.90419    
      6000   6              1486.8421     -97.243713      5.957872      -91.285841      1486.8421     -3760.3669      635.10526    
      7000   7              1565.9167     -97.462217      6.2747294     -91.187487      1565.9167     -388.63278      644.8209     
      8000   8              1488.1346     -96.645758      5.9630514     -90.682706      1488.1346     -6351.5532      661.05373    
      9000   9              1368.9098     -98.177609      5.48531       -92.692299      1368.9098     -17109.475      637.57555    
     10000   10             1403.6251     -97.058657      5.6244164     -91.434241      1403.6251      8901.4732      629.65192    
Loop time of 0.704863 on 2 procs for 10000 steps with 32 atoms

Performance: 1225.770 ns/day, 0.020 hours/ns, 14187.149 timesteps/s
97.5% CPU use with 2 MPI tasks x 1 OpenMP threads

MPI task timing breakdown:
Section |  min time  |  avg time  |  max time  |%varavg| %total
---------------------------------------------------------------
Pair    | 0.46142    | 0.46513    | 0.46884    |   0.5 | 65.99
Neigh   | 0.0062578  | 0.0062764  | 0.0062951  |   0.0 |  0.89
Comm    | 0.092479   | 0.096335   | 0.10019    |   1.2 | 13.67
Output  | 0.00014403 | 0.00018358 | 0.00022312 |   0.0 |  0.03
Modify  | 0.12787    | 0.12852    | 0.12917    |   0.2 | 18.23
Other   |            | 0.008417   |            |       |  1.19

Nlocal:             16 ave          16 max          16 min
Histogram: 2 0 0 0 0 0 0 0 0 0
Nghost:          678.5 ave         686 max         671 min
Histogram: 1 0 0 0 0 0 0 0 0 1
Neighs:           1027 ave        1047 max        1007 min
Histogram: 1 0 0 0 0 0 0 0 0 1

Total # of neighbors = 2054
Ave neighs/atom = 64.1875
Neighbor list builds = 183
Dangerous builds = 0
unfix 2
# unfix 3

# NPT Production run at temperature
reset_timestep 0
variable prrunl equal 1E4
fix 3 all ave/time 1 10000 10000 c_mytemp c_mypress v_vmyvol v_avgEtotal
fix 4 all ave/time 1 10 10 c_mytemp c_mypress v_vmyvol v_avgEtotal file ${rampdown_pravgfile}
fix 4 all ave/time 1 10 10 c_mytemp c_mypress v_vmyvol v_avgEtotal file rampdown_pravg_1500.txt
# print to file average of every 10 steps. Every 10 femptoseconds

thermo 1000 # Print every "thermo" timesteps
run ${prrunl}
run 10000
Per MPI rank memory allocation (min/avg/max) = 3.707 | 3.707 | 3.707 Mbytes
   Step          Time           Temp          PotEng         KinEng         TotEng        c_mytemp      c_mypress        Volume    
         0   0              1403.6251     -97.058657      5.6244164     -91.434241      1403.6251      8901.4732      629.65192    
      1000   1              1551.9336     -96.947351      6.218698      -90.728653      1551.9336      3262.8955      650.38533    
      2000   2              1388.3208     -97.397015      5.563091      -91.833924      1388.3208      1761.3163      634.17539    
      3000   3              1533.8223     -97.480803      6.1461248     -91.334678      1533.8223     -13505.965      639.66813    
      4000   4              1636.4672     -97.057614      6.5574295     -90.500185      1636.4672      3319.644       640.59007    
      5000   5              1239.0609     -97.217738      4.9649969     -92.252741      1239.0609      3245.4713      634.92394    
      6000   6              1537.8805     -97.760655      6.1623862     -91.598269      1537.8805      818.36269      633.68679    
      7000   7              1526.813      -96.905121      6.1180381     -90.787083      1526.813       12671.532      623.6696     
      8000   8              1543.349      -97.658607      6.1842991     -91.474308      1543.349      -5947.7465      636.66946    
      9000   9              1425.8779     -97.747155      5.7135846     -92.03357       1425.8779      4646.0225      631.88489    
     10000   10             1584.9138     -97.7872        6.350852      -91.436348      1584.9138      6389.0692      627.74825    
Loop time of 0.76417 on 2 procs for 10000 steps with 32 atoms

Performance: 1130.639 ns/day, 0.021 hours/ns, 13086.095 timesteps/s
97.4% CPU use with 2 MPI tasks x 1 OpenMP threads

MPI task timing breakdown:
Section |  min time  |  avg time  |  max time  |%varavg| %total
---------------------------------------------------------------
Pair    | 0.46698    | 0.46835    | 0.46972    |   0.2 | 61.29
Neigh   | 0.0064071  | 0.0064073  | 0.0064074  |   0.0 |  0.84
Comm    | 0.096213   | 0.097865   | 0.099517   |   0.5 | 12.81
Output  | 0.00023049 | 0.00054261 | 0.00085472 |   0.0 |  0.07
Modify  | 0.18005    | 0.18161    | 0.18317    |   0.4 | 23.77
Other   |            | 0.009396   |            |       |  1.23

Nlocal:             16 ave          18 max          14 min
Histogram: 1 0 0 0 0 0 0 0 0 1
Nghost:          696.5 ave         714 max         679 min
Histogram: 1 0 0 0 0 0 0 0 0 1
Neighs:           1018 ave        1128 max         908 min
Histogram: 1 0 0 0 0 0 0 0 0 1

Total # of neighbors = 2036
Ave neighs/atom = 63.625
Neighbor list builds = 188
Dangerous builds = 0
variable final_temp_avg equal f_3[1]
variable final_press_avg equal f_3[2]
variable final_vol_avg equal f_3[3]
variable final_etot_avg equal f_3[4]

print "${final_temp_avg} ${final_press_avg} ${final_vol_avg} ${final_etot_avg}" append ${prallfile}
print "${final_temp_avg} ${final_press_avg} ${final_vol_avg} ${final_etot_avg}" append prall.txt
1496.17180779454 -99.3442498182984 637.523718158285 -2.85800337743329

unfix 3
unfix 4
#unfix 1

next i
jump Ramp.txt.in LoopStart2
variable i delete
Total wall time: 0:01:17
