
     Program PHONON v.7.3.1 starts on 15Oct2024 at 10:38:12 

     This program is part of the open-source Quantum ESPRESSO suite
     for quantum simulation of materials; please cite
         "P. Giannozzi et al., J. Phys.:Condens. Matter 21 395502 (2009);
         "P. Giannozzi et al., J. Phys.:Condens. Matter 29 465901 (2017);
         "P. Giannozzi et al., J. Chem. Phys. 152 154105 (2020);
          URL http://www.quantum-espresso.org", 
     in publications or presentations arising from this work. More details at
     http://www.quantum-espresso.org/quote

     Parallel version (MPI & OpenMP), running on       2 processor cores
     Number of MPI processes:                 2
     Threads/MPI process:                     1

     MPI processes distributed on     1 nodes
     510255 MiB available memory on the printing compute node when the environment starts

     Waiting for input...
     Reading input from standard input

     Reading xml data from directory:

     ./si.save/

     R & G space division:  proc/nbgrp/npool/nimage =       2
     Subspace diagonalization in iterative solution of the eigenvalue problem:
     a serial algorithm will be used


     IMPORTANT: XC functional enforced from input :
     Exchange-correlation= PZ
                           (   1   1   0   0   0   0   0)
     Any further DFT definition will be discarded
     Please, verify this is what you really want


     Parallelization info
     --------------------
     sticks:   dense  smooth     PW     G-vecs:    dense   smooth      PW
     Min         117     117     42                 1138     1138     264
     Max         118     118     43                 1139     1139     267
     Sum         235     235     85                 2277     2277     531

     Using Slab Decomposition

     Reading collected, re-writing distributed wavefunctions in ./

     Number and degeneracy of irreps per q-point
       N         xq(1)         xq(2)         xq(3)   N irreps
       1   0.000000000   0.000000000   0.000000000       2
        3   3

     Calculation of q =    0.0000000   0.0000000   0.0000000

     phonons at Gamma                                                           

     bravais-lattice index     =            2
     lattice parameter (alat)  =      10.1870  a.u.
     unit-cell volume          =     264.2889 (a.u.)^3
     number of atoms/cell      =            2
     number of atomic types    =            1
     kinetic-energy cut-off    =      16.0000  Ry
     charge density cut-off    =      64.0000  Ry
     convergence threshold     =      1.0E-14
     beta                      =       0.7000
     number of iterations used =            4
     Exchange-correlation= PZ
                           (   1   1   0   0   0   0   0)


     celldm(1)=   10.18700  celldm(2)=    0.00000  celldm(3)=    0.00000
     celldm(4)=    0.00000  celldm(5)=    0.00000  celldm(6)=    0.00000

     crystal axes: (cart. coord. in units of alat)
               a(1) = ( -0.5000  0.0000  0.5000 )  
               a(2) = (  0.0000  0.5000  0.5000 )  
               a(3) = ( -0.5000  0.5000  0.0000 )  

     reciprocal axes: (cart. coord. in units 2 pi/alat)
               b(1) = ( -1.0000 -1.0000  1.0000 )  
               b(2) = (  1.0000  1.0000  1.0000 )  
               b(3) = ( -1.0000  1.0000 -1.0000 )  


     Atoms inside the unit cell: 

     Cartesian axes

     site n.  atom      mass           positions (alat units)
        1  Si     28.0855   tau(    1) = (    0.00000    0.00000    0.00000  )
        2  Si     28.0855   tau(    2) = (    0.25000    0.25000    0.25000  )

     Computing dynamical matrix for 
                    q = (   0.0000000   0.0000000   0.0000000 )

     49 Sym.Ops. (with q -> -q+G )


     G cutoff =  168.2336  (   1139 G-vectors)     FFT grid: ( 20, 20, 20)
     number of k points=    10
                       cart. coord. in units 2pi/alat
        k(    1) = (  -0.1250000   0.1250000   0.1250000), wk =   0.0625000
        k(    2) = (  -0.3750000   0.3750000  -0.1250000), wk =   0.1875000
        k(    3) = (   0.3750000  -0.3750000   0.6250000), wk =   0.1875000
        k(    4) = (   0.1250000  -0.1250000   0.3750000), wk =   0.1875000
        k(    5) = (  -0.1250000   0.6250000   0.1250000), wk =   0.1875000
        k(    6) = (   0.6250000  -0.1250000   0.8750000), wk =   0.3750000
        k(    7) = (   0.3750000   0.1250000   0.6250000), wk =   0.3750000
        k(    8) = (  -0.1250000  -0.8750000   0.1250000), wk =   0.1875000
        k(    9) = (  -0.3750000   0.3750000   0.3750000), wk =   0.0625000
        k(   10) = (   0.3750000  -0.3750000   1.1250000), wk =   0.1875000

     PseudoPot. # 1 for Si read from file:
     ..//Si.pz-rrkj.UPF
     MD5 check sum: 884b380b739b48e9cd334294cddc9a8d
     Pseudo is Norm-conserving, Zval =  4.0
     Generated using "atomic" code by A. Dal Corso (espresso distribution)
     Using radial grid of 1141 points,  2 beta functions with: 
                l(1) =   0
                l(2) =   1

     Mode symmetry, O_h (m-3m)  point group:


     Electric field:
     Dielectric constant
     Born effective charges as d Force / d E


     Atomic displacements:
     There are    2 irreducible representations

     Representation     1      3 modes -  To be done

     Representation     2      3 modes -  To be done



     Alpha used in Ewald sum =   0.7000
     PHONON       :      0.18s CPU      0.22s WALL


     Electric Fields Calculation

      iter #   1 total cpu time :     0.4 secs   av.it.:   5.6
      thresh= 1.000E-02 alpha_mix =  0.700 |ddv_scf|^2 =  9.055E-07

      iter #   2 total cpu time :     0.5 secs   av.it.:   9.5
      thresh= 9.516E-05 alpha_mix =  0.700 |ddv_scf|^2 =  3.515E-08

      iter #   3 total cpu time :     0.6 secs   av.it.:   9.4
      thresh= 1.875E-05 alpha_mix =  0.700 |ddv_scf|^2 =  3.470E-10

      iter #   4 total cpu time :     0.7 secs   av.it.:   9.5
      thresh= 1.863E-06 alpha_mix =  0.700 |ddv_scf|^2 =  1.483E-12

      iter #   5 total cpu time :     0.9 secs   av.it.:   9.0
      thresh= 1.218E-07 alpha_mix =  0.700 |ddv_scf|^2 =  2.043E-15

     End of electric fields calculation

          Dielectric constant in cartesian axis 

          (      13.998253693      -0.000000000      -0.000000000 )
          (      -0.000000000      13.998253693      -0.000000000 )
          (      -0.000000000      -0.000000000      13.998253693 )

          Effective charges (d Force / dE) in cartesian axis without acoustic sum rule applied (asr)

           atom    1  Si    Mean Z*:       -0.07441
      Ex  (       -0.07441       -0.00000        0.00000 )
      Ey  (       -0.00000       -0.07441        0.00000 )
      Ez  (        0.00000        0.00000       -0.07441 )
           atom    2  Si    Mean Z*:       -0.07441
      Ex  (       -0.07441        0.00000       -0.00000 )
      Ey  (        0.00000       -0.07441       -0.00000 )
      Ez  (       -0.00000       -0.00000       -0.07441 )

          Effective charges Sum: Mean:       -0.14882
             -0.14882        0.00000        0.00000
              0.00000       -0.14882       -0.00000
             -0.00000       -0.00000       -0.14882

          Effective charges (d Force / dE) in cartesian axis with asr applied: 
           atom    1  Si    Mean Z*:       -0.00000
      E*x (       -0.00000       -0.00000        0.00000 )
      E*y (       -0.00000       -0.00000        0.00000 )
      E*z (        0.00000        0.00000       -0.00000 )
           atom    2  Si    Mean Z*:        0.00000
      E*x (        0.00000        0.00000       -0.00000 )
      E*y (        0.00000        0.00000       -0.00000 )
      E*z (       -0.00000       -0.00000        0.00000 )


     Representation #   1 modes #   1   2   3

     Self-consistent Calculation

      iter #   1 total cpu time :     1.0 secs   av.it.:   5.1
      thresh= 1.000E-02 alpha_mix =  0.700 |ddv_scf|^2 =  1.902E-07

      iter #   2 total cpu time :     1.1 secs   av.it.:   9.5
      thresh= 4.362E-05 alpha_mix =  0.700 |ddv_scf|^2 =  3.384E-09

      iter #   3 total cpu time :     1.3 secs   av.it.:   9.4
      thresh= 5.817E-06 alpha_mix =  0.700 |ddv_scf|^2 =  3.348E-11

      iter #   4 total cpu time :     1.4 secs   av.it.:   8.9
      thresh= 5.786E-07 alpha_mix =  0.700 |ddv_scf|^2 =  2.918E-14

      iter #   5 total cpu time :     1.5 secs   av.it.:   9.5
      thresh= 1.708E-08 alpha_mix =  0.700 |ddv_scf|^2 =  2.844E-16

     End of self-consistent calculation

     Convergence has been achieved 


     Representation #   2 modes #   4   5   6

     Self-consistent Calculation

      iter #   1 total cpu time :     1.6 secs   av.it.:   5.1
      thresh= 1.000E-02 alpha_mix =  0.700 |ddv_scf|^2 =  1.333E-07

      iter #   2 total cpu time :     1.7 secs   av.it.:   9.7
      thresh= 3.651E-05 alpha_mix =  0.700 |ddv_scf|^2 =  4.798E-09

      iter #   3 total cpu time :     1.9 secs   av.it.:   9.5
      thresh= 6.927E-06 alpha_mix =  0.700 |ddv_scf|^2 =  4.616E-11

      iter #   4 total cpu time :     2.0 secs   av.it.:   9.4
      thresh= 6.794E-07 alpha_mix =  0.700 |ddv_scf|^2 =  1.005E-13

      iter #   5 total cpu time :     2.1 secs   av.it.:   9.8
      thresh= 3.170E-08 alpha_mix =  0.700 |ddv_scf|^2 =  1.705E-15

     End of self-consistent calculation

     Convergence has been achieved 

     Number of q in the star =    1
     List of q in the star:
          1   0.000000000   0.000000000   0.000000000

          Dielectric constant in cartesian axis 

          (      13.998253693      -0.000000000      -0.000000000 )
          (      -0.000000000      13.998253693      -0.000000000 )
          (      -0.000000000      -0.000000000      13.998253693 )

          Effective charges (d Force / dE) in cartesian axis without acoustic sum rule applied (asr)

           atom    1  Si    Mean Z*:       -0.07441
      Ex  (       -0.07441       -0.00000        0.00000 )
      Ey  (       -0.00000       -0.07441        0.00000 )
      Ez  (        0.00000        0.00000       -0.07441 )
           atom    2  Si    Mean Z*:       -0.07441
      Ex  (       -0.07441        0.00000       -0.00000 )
      Ey  (        0.00000       -0.07441       -0.00000 )
      Ez  (       -0.00000       -0.00000       -0.07441 )

          Effective charges Sum: Mean:       -0.14882
             -0.14882        0.00000        0.00000
              0.00000       -0.14882       -0.00000
             -0.00000       -0.00000       -0.14882

          Effective charges (d Force / dE) in cartesian axis with asr applied: 
           atom    1  Si    Mean Z*:       -0.00000
      E*x (       -0.00000       -0.00000        0.00000 )
      E*y (       -0.00000       -0.00000        0.00000 )
      E*z (        0.00000        0.00000       -0.00000 )
           atom    2  Si    Mean Z*:        0.00000
      E*x (        0.00000        0.00000       -0.00000 )
      E*y (        0.00000        0.00000       -0.00000 )
      E*z (       -0.00000       -0.00000        0.00000 )

     Diagonalizing the dynamical matrix

     q = (    0.000000000   0.000000000   0.000000000 ) 

 **************************************************************************
     freq (    1) =       0.088873 [THz] =       2.964471 [cm-1]
     freq (    2) =       0.088873 [THz] =       2.964471 [cm-1]
     freq (    3) =       0.088873 [THz] =       2.964471 [cm-1]
     freq (    4) =      15.549157 [THz] =     518.664042 [cm-1]
     freq (    5) =      15.549157 [THz] =     518.664042 [cm-1]
     freq (    6) =      15.549157 [THz] =     518.664042 [cm-1]
 **************************************************************************

     Mode symmetry, O_h (m-3m)  point group:

     freq (   1-   3) =          3.0  [cm-1]   --> T_1u G_15  G_4- I  
     freq (   4-   6) =        518.7  [cm-1]   --> T_2g G_25' G_5+ R  

     PHONON       :      1.17s CPU      2.19s WALL

     INITIALIZATION: 
     phq_setup    :      0.00s CPU      0.02s WALL (       1 calls)
     phq_init     :      0.00s CPU      0.00s WALL (       1 calls)

     phq_init     :      0.00s CPU      0.00s WALL (       1 calls)
     init_vloc    :      0.01s CPU      0.01s WALL (       1 calls)
     init_us_1    :      0.00s CPU      0.00s WALL (       1 calls)
     init_us_2    :      0.00s CPU      0.00s WALL (     250 calls)

     DIELECTRIC CONSTANT AND EFFECTIVE CHARGES:
     solve_e      :      0.40s CPU      0.68s WALL (       1 calls)
     dielec       :      0.00s CPU      0.00s WALL (       1 calls)
     zstar_eu     :      0.01s CPU      0.04s WALL (       1 calls)

     DYNAMICAL MATRIX:
     dynmat0      :      0.00s CPU      0.00s WALL (       1 calls)
     dynmat_us    :      0.00s CPU      0.00s WALL (       1 calls)
     d2ionq       :      0.00s CPU      0.00s WALL (       1 calls)
     phqscf       :      0.58s CPU      1.16s WALL (       1 calls)
     dynmatrix    :      0.00s CPU      0.03s WALL (       1 calls)

     phqscf       :      0.58s CPU      1.16s WALL (       1 calls)
     solve_linter :      0.58s CPU      1.09s WALL (       2 calls)
     sth_kernel   :      0.67s CPU      0.88s WALL (      15 calls)
     h_prec       :      0.00s CPU      0.00s WALL (     180 calls)
     apply_dpot_b :      0.04s CPU      0.05s WALL (     360 calls)
     ortho        :      0.00s CPU      0.00s WALL (     480 calls)
     cgsolve      :      0.68s CPU      0.88s WALL (     480 calls)
     incdrhoscf   :      0.04s CPU      0.06s WALL (     450 calls)
                                        0.00s GPU  (     450 calls)
     dv_of_drho   :      0.00s CPU      0.00s WALL (      45 calls)
     mix_pot      :      0.00s CPU      0.01s WALL (      15 calls)
     drhodv       :      0.00s CPU      0.00s WALL (       2 calls)
     psymdvscf    :      0.13s CPU      0.14s WALL (      10 calls)

     dvqpsi_us    :      0.02s CPU      0.02s WALL (     120 calls)
                                        0.00s GPU  (     120 calls)
     dvqpsi_us_on :      0.00s CPU      0.00s WALL (     120 calls)

     add_vuspsi   :      0.01s CPU      0.02s WALL (    5074 calls)


      General routines
     calbec       :      0.04s CPU      0.05s WALL (   10518 calls)
     fft          :      0.15s CPU      0.15s WALL (     139 calls)
     ffts         :      0.00s CPU      0.00s WALL (     132 calls)
     fftw         :      0.45s CPU      0.58s WALL (   44166 calls)
     davcio       :      0.02s CPU      0.03s WALL (    2028 calls)
     write_rec    :      0.00s CPU      0.62s WALL (      17 calls)

      Additional routines
     ch_psi       :      0.65s CPU      0.84s WALL (    5074 calls)
     last         :      0.07s CPU      0.09s WALL (    5074 calls)
     Hesh         :      0.00s CPU      0.01s WALL (    5074 calls)
     ch_psi_all_k :      0.06s CPU      0.07s WALL (    5074 calls)
                                        0.00s GPU  (    5074 calls)
     ch_psi_calbe :      0.02s CPU      0.03s WALL (    5074 calls)
                                        0.00s GPU  (    5074 calls)
     h_psi_bgrp   :      0.57s CPU      0.72s WALL (    5074 calls)
     h_psi        :      0.56s CPU      0.72s WALL (    5074 calls)
     h_psi:pot    :      0.55s CPU      0.70s WALL (    5074 calls)
     h_psi:calbec :      0.03s CPU      0.03s WALL (    5074 calls)
     s_psi_bgrp   :      0.01s CPU      0.02s WALL (   10628 calls)


     PHONON       :      1.17s CPU      2.20s WALL


   This run was terminated on:  10:38:14  15Oct2024            

=------------------------------------------------------------------------------=
   JOB DONE.
=------------------------------------------------------------------------------=
