
     Program BANDS v.7.3.1 starts on  6Oct2024 at 14:29: 0 

     This program is part of the open-source Quantum ESPRESSO suite
     for quantum simulation of materials; please cite
         "P. Giannozzi et al., J. Phys.:Condens. Matter 21 395502 (2009);
         "P. Giannozzi et al., J. Phys.:Condens. Matter 29 465901 (2017);
         "P. Giannozzi et al., J. Chem. Phys. 152 154105 (2020);
          URL http://www.quantum-espresso.org", 
     in publications or presentations arising from this work. More details at
     http://www.quantum-espresso.org/quote

     Parallel version (MPI & OpenMP), running on       2 processor cores
     Number of MPI processes:                 2
     Threads/MPI process:                     1

     MPI processes distributed on     1 nodes
     R & G space division:  proc/nbgrp/npool/nimage =       2
     481269 MiB available memory on the printing compute node when the environment starts


     Reading xml data from directory:

     ./diamond.save/

     IMPORTANT: XC functional enforced from input :
     Exchange-correlation= PBE
                           (   1   4   3   4   0   0   0)
     Any further DFT definition will be discarded
     Please, verify this is what you really want


     Parallelization info
     --------------------
     sticks:   dense  smooth     PW     G-vecs:    dense   smooth      PW
     Min         156     156     63                 1823     1823     482
     Max         157     157     64                 1824     1824     483
     Sum         313     313    127                 3647     3647     965

     Using Slab Decomposition

     Reading collected, re-writing distributed wavefunctions
     high-symmetry point:  0.0000 0.0000 0.0000   x coordinate   0.0000
     high-symmetry point:  0.5000 0.0000 0.5000   x coordinate   0.7071
     high-symmetry point:  0.3750 0.3750 0.7500   x coordinate   1.1748
     high-symmetry point:  0.0000 0.0000 0.0000   x coordinate   2.0934
     high-symmetry point:  0.5000 0.5000 0.5000   x coordinate   2.9594
     high-symmetry point:  0.2500 0.2500 0.2500   x coordinate   3.3924

     Plottable bands (eV) written to file bands.dat.gnu
     Bands written to file bands.dat

 **************************************************************************

                    xk=(   0.00000,   0.00000,   0.00000  )

     point group O_h (m-3m) 
     there are 10 classes
     the character table:

       E     8C3   3C2   6C4   6C2'  i     8S6   3s_h  6S4   6s_d 
A_1g   1.00  1.00  1.00  1.00  1.00  1.00  1.00  1.00  1.00  1.00
A_2g   1.00  1.00  1.00 -1.00 -1.00  1.00  1.00  1.00 -1.00 -1.00
E_g    2.00 -1.00  2.00  0.00  0.00  2.00 -1.00  2.00  0.00  0.00
T_1g   3.00  0.00 -1.00  1.00 -1.00  3.00  0.00 -1.00  1.00 -1.00
T_2g   3.00  0.00 -1.00 -1.00  1.00  3.00  0.00 -1.00 -1.00  1.00
A_1u   1.00  1.00  1.00  1.00  1.00 -1.00 -1.00 -1.00 -1.00 -1.00
A_2u   1.00  1.00  1.00 -1.00 -1.00 -1.00 -1.00 -1.00  1.00  1.00
E_u    2.00 -1.00  2.00  0.00  0.00 -2.00  1.00 -2.00  0.00  0.00
T_1u   3.00  0.00 -1.00  1.00 -1.00 -3.00  0.00  1.00 -1.00  1.00
T_2u   3.00  0.00 -1.00 -1.00  1.00 -3.00  0.00  1.00  1.00 -1.00

     the symmetry operations in each class and the name of the first element:

     E        1
                                                                 
     8C3     17   19   20   18   24   21   22   23
                                                                 
     3C2      2    4    3
                                                                 
     6C4      7    8   15   16   12   11
                                                                 
     6C2'     5    6   14   13   10    9
                                                                 
     i       25
                                                                 
     8S6     41   43   44   42   48   45   46   47
                                                                 
     3s_h    26   28   27
                                                                 
     6S4     31   32   39   40   36   35
                                                                 
     6s_d    29   30   38   37   34   33
                                                                 

     Band symmetry, O_h (m-3m)  point group:

     e(  1 -  1) =     -8.05410  eV     1   --> A_1g G_1   G_1+
     e(  2 -  4) =     13.57441  eV     3   --> T_2g G_25' G_5+
     e(  5 -  7) =     19.21467  eV     3   --> T_1u G_15  G_4-
     e(  8 -  8) =     27.25170  eV     1   --> A_2u G_2'  G_2-

 **************************************************************************

 **************************************************************************

                    xk=(   0.05000,   0.00000,   0.05000  )

     point group C_2v (mm2) 
     there are  4 classes
     the character table:

       E     C2    s_v   s_v' 
A_1    1.00  1.00  1.00  1.00
A_2    1.00  1.00 -1.00 -1.00
B_1    1.00 -1.00  1.00 -1.00
B_2    1.00 -1.00 -1.00  1.00

     the symmetry operations in each class and the name of the first element:

     E        1
                                                                 
     C2       2
                                                                 
     s_v      3
                                                                 
     s_v'     4
                                                                 

     Band symmetry, C_2v (mm2)  point group:

     e(  1 -  1) =     -8.00755  eV     1   --> A_1  D_1  S_1  
     e(  2 -  2) =     13.29878  eV     1   --> B_2  D_4  S_4  
     e(  3 -  3) =     13.37690  eV     1   --> A_1  D_1  S_1  
     e(  4 -  4) =     13.54579  eV     1   --> A_2  D_2  S_2  
     e(  5 -  5) =     19.26120  eV     1   --> B_1  D_3  S_3  
     e(  6 -  6) =     19.36778  eV     1   --> A_1  D_1  S_1  
     e(  7 -  7) =     19.44351  eV     1   --> B_2  D_4  S_4  
     e(  8 -  8) =     27.28711  eV     1   --> B_2  D_4  S_4  

 **************************************************************************

 **************************************************************************

                    xk=(   0.10000,   0.00000,   0.10000  )

     Band symmetry, C_2v (mm2)  point group:

     e(  1 -  1) =     -7.86795  eV     1   --> A_1  D_1  S_1  
     e(  2 -  2) =     12.59278  eV     1   --> B_2  D_4  S_4  
     e(  3 -  3) =     12.84388  eV     1   --> A_1  D_1  S_1  
     e(  4 -  4) =     13.45861  eV     1   --> A_2  D_2  S_2  
     e(  5 -  5) =     19.40319  eV     1   --> B_1  D_3  S_3  
     e(  6 -  6) =     19.77777  eV     1   --> A_1  D_1  S_1  
     e(  7 -  7) =     20.00590  eV     1   --> B_2  D_4  S_4  
     e(  8 -  8) =     27.38290  eV     1   --> B_2  D_4  S_4  

 **************************************************************************

 **************************************************************************

                    xk=(   0.15000,   0.00000,   0.15000  )

     Band symmetry, C_2v (mm2)  point group:

     e(  1 -  1) =     -7.63570  eV     1   --> A_1  D_1  S_1  
     e(  2 -  2) =     11.65699  eV     1   --> B_2  D_4  S_4  
     e(  3 -  3) =     12.09135  eV     1   --> A_1  D_1  S_1  
     e(  4 -  4) =     13.30929  eV     1   --> A_2  D_2  S_2  
     e(  5 -  5) =     19.63893  eV     1   --> B_1  D_3  S_3  
     e(  6 -  6) =     20.34761  eV     1   --> A_1  D_1  S_1  
     e(  7 -  7) =     20.68480  eV     1   --> B_2  D_4  S_4  
     e(  8 -  8) =     27.50633  eV     1   --> B_2  D_4  S_4  

 **************************************************************************

 **************************************************************************

                    xk=(   0.20000,   0.00000,   0.20000  )

     Band symmetry, C_2v (mm2)  point group:

     e(  1 -  1) =     -7.31147  eV     1   --> A_1  D_1  S_1  
     e(  2 -  2) =     10.62434  eV     1   --> B_2  D_4  S_4  
     e(  3 -  3) =     11.21649  eV     1   --> A_1  D_1  S_1  
     e(  4 -  4) =     13.09322  eV     1   --> A_2  D_2  S_2  
     e(  5 -  5) =     19.96671  eV     1   --> B_1  D_3  S_3  
     e(  6 -  6) =     21.00963  eV     1   --> A_1  D_1  S_1  
     e(  7 -  7) =     21.32888  eV     1   --> B_2  D_4  S_4  
     e(  8 -  8) =     27.60512  eV     1   --> B_2  D_4  S_4  

 **************************************************************************

 **************************************************************************

                    xk=(   0.25000,   0.00000,   0.25000  )

     Band symmetry, C_2v (mm2)  point group:

     e(  1 -  1) =     -6.89630  eV     1   --> A_1  D_1  S_1  
     e(  2 -  2) =      9.56632  eV     1   --> B_2  D_4  S_4  
     e(  3 -  3) =     10.28412  eV     1   --> A_1  D_1  S_1  
     e(  4 -  4) =     12.80746  eV     1   --> A_2  D_2  S_2  
     e(  5 -  5) =     20.38440  eV     1   --> B_1  D_3  S_3  
     e(  6 -  6) =     21.73204  eV     1   --> A_1  D_1  S_1  
     e(  7 -  7) =     21.85119  eV     1   --> B_2  D_4  S_4  
     e(  8 -  8) =     27.62793  eV     1   --> B_2  D_4  S_4  

 **************************************************************************

 **************************************************************************

                    xk=(   0.30000,   0.00000,   0.30000  )

     Band symmetry, C_2v (mm2)  point group:

     e(  1 -  1) =     -6.39172  eV     1   --> A_1  D_1  S_1  
     e(  2 -  2) =      8.52225  eV     1   --> B_2  D_4  S_4  
     e(  3 -  3) =      9.33693  eV     1   --> A_1  D_1  S_1  
     e(  4 -  4) =     12.45301  eV     1   --> A_2  D_2  S_2  
     e(  5 -  5) =     20.88954  eV     1   --> B_1  D_3  S_3  
     e(  6 -  6) =     22.20046  eV     1   --> B_2  D_4  S_4  
     e(  7 -  7) =     22.50409  eV     1   --> A_1  D_1  S_1  
     e(  8 -  8) =     27.56780  eV     1   --> B_2  D_4  S_4  

 **************************************************************************

 **************************************************************************

                    xk=(   0.35000,   0.00000,   0.35000  )

     Band symmetry, C_2v (mm2)  point group:

     e(  1 -  1) =     -5.79997  eV     1   --> A_1  D_1  S_1  
     e(  2 -  2) =      7.51410  eV     1   --> B_2  D_4  S_4  
     e(  3 -  3) =      8.40364  eV     1   --> A_1  D_1  S_1  
     e(  4 -  4) =     12.03476  eV     1   --> A_2  D_2  S_2  
     e(  5 -  5) =     21.47753  eV     1   --> B_1  D_3  S_3  
     e(  6 -  6) =     22.34427  eV     1   --> B_2  D_4  S_4  
     e(  7 -  7) =     23.32559  eV     1   --> A_1  D_1  S_1  
     e(  8 -  8) =     27.48073  eV     1   --> B_2  D_4  S_4  

 **************************************************************************

 **************************************************************************

                    xk=(   0.40000,   0.00000,   0.40000  )

     Band symmetry, C_2v (mm2)  point group:

     e(  1 -  1) =     -5.12432  eV     1   --> A_1  D_1  S_1  
     e(  2 -  2) =      6.55601  eV     1   --> B_2  D_4  S_4  
     e(  3 -  3) =      7.50572  eV     1   --> A_1  D_1  S_1  
     e(  4 -  4) =     11.56316  eV     1   --> A_2  D_2  S_2  
     e(  5 -  5) =     22.14383  eV     1   --> B_1  D_3  S_3  
     e(  6 -  6) =     22.27228  eV     1   --> B_2  D_4  S_4  
     e(  7 -  7) =     24.19787  eV     1   --> A_1  D_1  S_1  
     e(  8 -  8) =     27.44863  eV     1   --> B_2  D_4  S_4  

 **************************************************************************

 **************************************************************************

                    xk=(   0.45000,   0.00000,   0.45000  )

     Band symmetry, C_2v (mm2)  point group:

     e(  1 -  1) =     -4.36984  eV     1   --> A_1  D_1  S_1  
     e(  2 -  2) =      5.65743  eV     1   --> B_2  D_4  S_4  
     e(  3 -  3) =      6.66071  eV     1   --> A_1  D_1  S_1  
     e(  4 -  4) =     11.05392  eV     1   --> A_2  D_2  S_2  
     e(  5 -  5) =     22.00882  eV     1   --> B_2  D_4  S_4  
     e(  6 -  6) =     22.88054  eV     1   --> B_1  D_3  S_3  
     e(  7 -  7) =     25.12153  eV     1   --> A_1  D_1  S_1  
     e(  8 -  8) =     27.52139  eV     1   --> B_2  D_4  S_4  

 **************************************************************************

 **************************************************************************

                    xk=(   0.50000,   0.00000,   0.50000  )

     Band symmetry, C_2v (mm2)  point group:

     e(  1 -  1) =     -3.54434  eV     1   --> A_1  D_1  S_1  
     e(  2 -  2) =      4.82479  eV     1   --> B_2  D_4  S_4  
     e(  3 -  3) =      5.88424  eV     1   --> A_1  D_1  S_1  
     e(  4 -  4) =     10.52347  eV     1   --> A_2  D_2  S_2  
     e(  5 -  5) =     21.60979  eV     1   --> B_2  D_4  S_4  
     e(  6 -  6) =     23.67894  eV     1   --> B_1  D_3  S_3  
     e(  7 -  7) =     26.08710  eV     1   --> A_1  D_1  S_1  
     e(  8 -  8) =     27.70178  eV     1   --> B_2  D_4  S_4  

 **************************************************************************

 **************************************************************************

                    xk=(   0.48750,   0.03750,   0.52500  )

     point group C_1 (1)    
     there are  1 classes
     the character table:

       E    
A      1.00

     the symmetry operations in each class and the name of the first element:

     E        1
                                                                 

     Band symmetry, C_1 (1)     point group:

     e(  1 -  1) =     -3.41912  eV     1   --> A              
     e(  2 -  2) =      4.49700  eV     1   --> A              
     e(  3 -  3) =      6.03262  eV     1   --> A              
     e(  4 -  4) =     10.42932  eV     1   --> A              
     e(  5 -  5) =     21.59992  eV     1   --> A              
     e(  6 -  6) =     23.69877  eV     1   --> A              
     e(  7 -  7) =     26.14094  eV     1   --> A              
     e(  8 -  8) =     27.77652  eV     1   --> A              

 **************************************************************************

 **************************************************************************

                    xk=(   0.47500,   0.07500,   0.55000  )

     Band symmetry, C_1 (1)     point group:

     e(  1 -  1) =     -3.25849  eV     1   --> A              
     e(  2 -  2) =      3.96382  eV     1   --> A              
     e(  3 -  3) =      6.41137  eV     1   --> A              
     e(  4 -  4) =     10.28371  eV     1   --> A              
     e(  5 -  5) =     21.67767  eV     1   --> A              
     e(  6 -  6) =     23.55683  eV     1   --> A              
     e(  7 -  7) =     26.09510  eV     1   --> A              
     e(  8 -  8) =     27.90937  eV     1   --> A              

 **************************************************************************

 **************************************************************************

                    xk=(   0.46250,   0.11250,   0.57500  )

     Band symmetry, C_1 (1)     point group:

     e(  1 -  1) =     -3.06403  eV     1   --> A              
     e(  2 -  2) =      3.40078  eV     1   --> A              
     e(  3 -  3) =      6.84202  eV     1   --> A              
     e(  4 -  4) =     10.09565  eV     1   --> A              
     e(  5 -  5) =     21.82616  eV     1   --> A              
     e(  6 -  6) =     23.28465  eV     1   --> A              
     e(  7 -  7) =     26.03181  eV     1   --> A              
     e(  8 -  8) =     28.03048  eV     1   --> A              

 **************************************************************************

 **************************************************************************

                    xk=(   0.45000,   0.15000,   0.60000  )

     Band symmetry, C_1 (1)     point group:

     e(  1 -  1) =     -2.83821  eV     1   --> A              
     e(  2 -  2) =      2.85121  eV     1   --> A              
     e(  3 -  3) =      7.27273  eV     1   --> A              
     e(  4 -  4) =      9.87950  eV     1   --> A              
     e(  5 -  5) =     21.98784  eV     1   --> A              
     e(  6 -  6) =     22.97810  eV     1   --> A              
     e(  7 -  7) =     25.98826  eV     1   --> A              
     e(  8 -  8) =     28.10726  eV     1   --> A              

 **************************************************************************

 **************************************************************************

                    xk=(   0.43750,   0.18750,   0.62500  )

     Band symmetry, C_1 (1)     point group:

     e(  1 -  1) =     -2.58504  eV     1   --> A              
     e(  2 -  2) =      2.33226  eV     1   --> A              
     e(  3 -  3) =      7.66902  eV     1   --> A              
     e(  4 -  4) =      9.65731  eV     1   --> A              
     e(  5 -  5) =     21.96861  eV     1   --> A              
     e(  6 -  6) =     22.87858  eV     1   --> A              
     e(  7 -  7) =     25.95523  eV     1   --> A              
     e(  8 -  8) =     28.14773  eV     1   --> A              

 **************************************************************************

 **************************************************************************

                    xk=(   0.42500,   0.22500,   0.65000  )

     Band symmetry, C_1 (1)     point group:

     e(  1 -  1) =     -2.31143  eV     1   --> A              
     e(  2 -  2) =      1.85651  eV     1   --> A              
     e(  3 -  3) =      7.98279  eV     1   --> A              
     e(  4 -  4) =      9.46830  eV     1   --> A              
     e(  5 -  5) =     21.67601  eV     1   --> A              
     e(  6 -  6) =     23.11820  eV     1   --> A              
     e(  7 -  7) =     25.90515  eV     1   --> A              
     e(  8 -  8) =     28.18090  eV     1   --> A              

 **************************************************************************

 **************************************************************************

                    xk=(   0.41250,   0.26250,   0.67500  )

     Band symmetry, C_1 (1)     point group:

     e(  1 -  1) =     -2.02952  eV     1   --> A              
     e(  2 -  2) =      1.43919  eV     1   --> A              
     e(  3 -  3) =      8.13842  eV     1   --> A              
     e(  4 -  4) =      9.37799  eV     1   --> A              
     e(  5 -  5) =     21.33009  eV     1   --> A              
     e(  6 -  6) =     23.50445  eV     1   --> A              
     e(  7 -  7) =     25.81310  eV     1   --> A              
     e(  8 -  8) =     28.23822  eV     1   --> A              

 **************************************************************************

 **************************************************************************

                    xk=(   0.40000,   0.30000,   0.70000  )

     Band symmetry, C_1 (1)     point group:

     e(  1 -  1) =     -1.76157  eV     1   --> A              
     e(  2 -  2) =      1.10408  eV     1   --> A              
     e(  3 -  3) =      8.08973  eV     1   --> A              
     e(  4 -  4) =      9.42081  eV     1   --> A              
     e(  5 -  5) =     21.04555  eV     1   --> A              
     e(  6 -  6) =     23.93355  eV     1   --> A              
     e(  7 -  7) =     25.67299  eV     1   --> A              
     e(  8 -  8) =     28.34203  eV     1   --> A              

 **************************************************************************

 **************************************************************************

                    xk=(   0.38750,   0.33750,   0.72500  )

     Band symmetry, C_1 (1)     point group:

     e(  1 -  1) =     -1.54638  eV     1   --> A              
     e(  2 -  2) =      0.89047  eV     1   --> A              
     e(  3 -  3) =      7.90148  eV     1   --> A              
     e(  4 -  4) =      9.52082  eV     1   --> A              
     e(  5 -  5) =     20.87068  eV     1   --> A              
     e(  6 -  6) =     24.32987  eV     1   --> A              
     e(  7 -  7) =     25.52367  eV     1   --> A              
     e(  8 -  8) =     28.49545  eV     1   --> A              

 **************************************************************************

 **************************************************************************

                    xk=(   0.37500,   0.37500,   0.75000  )

     point group C_s (m)    
     there are  2 classes
     the character table:

       E     s    
A'     1.00  1.00
A''    1.00 -1.00

     the symmetry operations in each class and the name of the first element:

     E        1
                                                                 
     s        2
                                                                 

     Band symmetry, C_s (m)     point group:

     e(  1 -  1) =     -1.43488  eV     1   --> A'             
     e(  2 -  2) =      0.84900  eV     1   --> A'             
     e(  3 -  3) =      7.65468  eV     1   --> A'             
     e(  4 -  4) =      9.58844  eV     1   --> A''            
     e(  5 -  5) =     20.83133  eV     1   --> A'             
     e(  6 -  6) =     24.52669  eV     1   --> A''            
     e(  7 -  7) =     25.52001  eV     1   --> A'             
     e(  8 -  8) =     28.67865  eV     1   --> A'             

 **************************************************************************

 **************************************************************************

                    xk=(   0.33750,   0.33750,   0.67500  )

     Band symmetry, C_s (m)     point group:

     e(  1 -  1) =     -2.12153  eV     1   --> A'             
     e(  2 -  2) =      1.34688  eV     1   --> A'             
     e(  3 -  3) =      8.45444  eV     1   --> A'             
     e(  4 -  4) =      9.55214  eV     1   --> A''            
     e(  5 -  5) =     20.76663  eV     1   --> A'             
     e(  6 -  6) =     24.41853  eV     1   --> A''            
     e(  7 -  7) =     25.05992  eV     1   --> A'             
     e(  8 -  8) =     28.07174  eV     1   --> A'             

 **************************************************************************

 **************************************************************************

                    xk=(   0.30000,   0.30000,   0.60000  )

     Band symmetry, C_s (m)     point group:

     e(  1 -  1) =     -3.21959  eV     1   --> A'             
     e(  2 -  2) =      2.50575  eV     1   --> A'             
     e(  3 -  3) =      9.27526  eV     1   --> A'             
     e(  4 -  4) =      9.65337  eV     1   --> A''            
     e(  5 -  5) =     20.74172  eV     1   --> A'             
     e(  6 -  6) =     24.21306  eV     1   --> A''            
     e(  7 -  7) =     24.56140  eV     1   --> A'             
     e(  8 -  8) =     27.54238  eV     1   --> A'             

 **************************************************************************

 **************************************************************************

                    xk=(   0.26250,   0.26250,   0.52500  )

     Band symmetry, C_s (m)     point group:

     e(  1 -  1) =     -4.29833  eV     1   --> A'             
     e(  2 -  2) =      3.89440  eV     1   --> A'             
     e(  3 -  3) =      9.89433  eV     1   --> A''            
     e(  4 -  4) =     10.08781  eV     1   --> A'             
     e(  5 -  5) =     20.69531  eV     1   --> A'             
     e(  6 -  6) =     23.89941  eV     1   --> A''            
     e(  7 -  7) =     24.01995  eV     1   --> A'             
     e(  8 -  8) =     27.24623  eV     1   --> A'             

 **************************************************************************

 **************************************************************************

                    xk=(   0.22500,   0.22500,   0.45000  )

     Band symmetry, C_s (m)     point group:

     e(  1 -  1) =     -5.27030  eV     1   --> A'             
     e(  2 -  2) =      5.41658  eV     1   --> A'             
     e(  3 -  3) =     10.27224  eV     1   --> A''            
     e(  4 -  4) =     10.86572  eV     1   --> A'             
     e(  5 -  5) =     20.56884  eV     1   --> A'             
     e(  6 -  6) =     23.42789  eV     1   --> A'             
     e(  7 -  7) =     23.44612  eV     1   --> A''            
     e(  8 -  8) =     27.23025  eV     1   --> A'             

 **************************************************************************

 **************************************************************************

                    xk=(   0.18750,   0.18750,   0.37500  )

     Band symmetry, C_s (m)     point group:

     e(  1 -  1) =     -6.10939  eV     1   --> A'             
     e(  2 -  2) =      7.02824  eV     1   --> A'             
     e(  3 -  3) =     10.77830  eV     1   --> A''            
     e(  4 -  4) =     11.58572  eV     1   --> A'             
     e(  5 -  5) =     20.34381  eV     1   --> A'             
     e(  6 -  6) =     22.77389  eV     1   --> A'             
     e(  7 -  7) =     22.82194  eV     1   --> A''            
     e(  8 -  8) =     27.41229  eV     1   --> A'             

 **************************************************************************

 **************************************************************************

                    xk=(   0.15000,   0.15000,   0.30000  )

     Band symmetry, C_s (m)     point group:

     e(  1 -  1) =     -6.80429  eV     1   --> A'             
     e(  2 -  2) =      8.68664  eV     1   --> A'             
     e(  3 -  3) =     11.39395  eV     1   --> A''            
     e(  4 -  4) =     12.22951  eV     1   --> A'             
     e(  5 -  5) =     20.05056  eV     1   --> A'             
     e(  6 -  6) =     22.02912  eV     1   --> A''            
     e(  7 -  7) =     22.04367  eV     1   --> A'             
     e(  8 -  8) =     27.58967  eV     1   --> A'             

 **************************************************************************

 **************************************************************************

                    xk=(   0.11250,   0.11250,   0.22500  )

     Band symmetry, C_s (m)     point group:

     e(  1 -  1) =     -7.34905  eV     1   --> A'             
     e(  2 -  2) =     10.33248  eV     1   --> A'             
     e(  3 -  3) =     12.08340  eV     1   --> A''            
     e(  4 -  4) =     12.77686  eV     1   --> A'             
     e(  5 -  5) =     19.74129  eV     1   --> A'             
     e(  6 -  6) =     21.12181  eV     1   --> A''            
     e(  7 -  7) =     21.22805  eV     1   --> A'             
     e(  8 -  8) =     27.59375  eV     1   --> A'             

 **************************************************************************

 **************************************************************************

                    xk=(   0.07500,   0.07500,   0.15000  )

     Band symmetry, C_s (m)     point group:

     e(  1 -  1) =     -7.74015  eV     1   --> A'             
     e(  2 -  2) =     11.86377  eV     1   --> A'             
     e(  3 -  3) =     12.77772  eV     1   --> A''            
     e(  4 -  4) =     13.20342  eV     1   --> A'             
     e(  5 -  5) =     19.46941  eV     1   --> A'             
     e(  6 -  6) =     20.21681  eV     1   --> A''            
     e(  7 -  7) =     20.35601  eV     1   --> A'             
     e(  8 -  8) =     27.45640  eV     1   --> A'             

 **************************************************************************

 **************************************************************************

                    xk=(   0.03750,   0.03750,   0.07500  )

     Band symmetry, C_s (m)     point group:

     e(  1 -  1) =     -7.97554  eV     1   --> A'             
     e(  2 -  2) =     13.07435  eV     1   --> A'             
     e(  3 -  3) =     13.34365  eV     1   --> A''            
     e(  4 -  4) =     13.47859  eV     1   --> A'             
     e(  5 -  5) =     19.28139  eV     1   --> A'             
     e(  6 -  6) =     19.49953  eV     1   --> A''            
     e(  7 -  7) =     19.56836  eV     1   --> A'             
     e(  8 -  8) =     27.31046  eV     1   --> A'             

 **************************************************************************

 **************************************************************************

                    xk=(   0.00000,   0.00000,   0.00000  )

     point group O_h (m-3m) 
     there are 10 classes
     the character table:

       E     8C3   3C2   6C4   6C2'  i     8S6   3s_h  6S4   6s_d 
A_1g   1.00  1.00  1.00  1.00  1.00  1.00  1.00  1.00  1.00  1.00
A_2g   1.00  1.00  1.00 -1.00 -1.00  1.00  1.00  1.00 -1.00 -1.00
E_g    2.00 -1.00  2.00  0.00  0.00  2.00 -1.00  2.00  0.00  0.00
T_1g   3.00  0.00 -1.00  1.00 -1.00  3.00  0.00 -1.00  1.00 -1.00
T_2g   3.00  0.00 -1.00 -1.00  1.00  3.00  0.00 -1.00 -1.00  1.00
A_1u   1.00  1.00  1.00  1.00  1.00 -1.00 -1.00 -1.00 -1.00 -1.00
A_2u   1.00  1.00  1.00 -1.00 -1.00 -1.00 -1.00 -1.00  1.00  1.00
E_u    2.00 -1.00  2.00  0.00  0.00 -2.00  1.00 -2.00  0.00  0.00
T_1u   3.00  0.00 -1.00  1.00 -1.00 -3.00  0.00  1.00 -1.00  1.00
T_2u   3.00  0.00 -1.00 -1.00  1.00 -3.00  0.00  1.00  1.00 -1.00

     the symmetry operations in each class and the name of the first element:

     E        1
                                                                 
     8C3     17   19   20   18   24   21   22   23
                                                                 
     3C2      2    4    3
                                                                 
     6C4      7    8   15   16   12   11
                                                                 
     6C2'     5    6   14   13   10    9
                                                                 
     i       25
                                                                 
     8S6     41   43   44   42   48   45   46   47
                                                                 
     3s_h    26   28   27
                                                                 
     6S4     31   32   39   40   36   35
                                                                 
     6s_d    29   30   38   37   34   33
                                                                 

     Band symmetry, O_h (m-3m)  point group:

     e(  1 -  1) =     -8.05410  eV     1   --> A_1g G_1   G_1+
     e(  2 -  4) =     13.57441  eV     3   --> T_2g G_25' G_5+
     e(  5 -  7) =     19.21467  eV     3   --> T_1u G_15  G_4-
     e(  8 -  8) =     27.25170  eV     1   --> A_2u G_2'  G_2-

 **************************************************************************

 **************************************************************************

                    xk=(   0.05000,   0.05000,   0.05000  )

     point group C_3v (3m)  
     there are  3 classes
     the character table:

       E     2C3   3s_v 
A_1    1.00  1.00  1.00
A_2    1.00  1.00 -1.00
E      2.00 -1.00  0.00

     the symmetry operations in each class and the name of the first element:

     E        1
                                                                 
     2C3      2    3
                                                                 
     3s_v     4    5    6
                                                                 

     Band symmetry, C_3v (3m)   point group:

     e(  1 -  1) =     -7.98427  eV     1   --> A_1  L_1       
     e(  2 -  2) =     13.08651  eV     1   --> A_1  L_1       
     e(  3 -  4) =     13.44906  eV     2   --> E    L_3       
     e(  5 -  6) =     19.37724  eV     2   --> E    L_3       
     e(  7 -  7) =     19.51867  eV     1   --> A_1  L_1       
     e(  8 -  8) =     27.30600  eV     1   --> A_1  L_1       

 **************************************************************************

 **************************************************************************

                    xk=(   0.10000,   0.10000,   0.10000  )

     Band symmetry, C_3v (3m)   point group:

     e(  1 -  1) =     -7.77500  eV     1   --> A_1  L_1       
     e(  2 -  2) =     11.88686  eV     1   --> A_1  L_1       
     e(  3 -  4) =     13.12194  eV     2   --> E    L_3       
     e(  5 -  6) =     19.80751  eV     2   --> E    L_3       
     e(  7 -  7) =     20.18105  eV     1   --> A_1  L_1       
     e(  8 -  8) =     27.46742  eV     1   --> A_1  L_1       

 **************************************************************************

 **************************************************************************

                    xk=(   0.15000,   0.15000,   0.15000  )

     Band symmetry, C_3v (3m)   point group:

     e(  1 -  1) =     -7.42721  eV     1   --> A_1  L_1       
     e(  2 -  2) =     10.34251  eV     1   --> A_1  L_1       
     e(  3 -  4) =     12.69008  eV     2   --> E    L_3       
     e(  5 -  6) =     20.37488  eV     2   --> E    L_3       
     e(  7 -  7) =     20.86965  eV     1   --> A_1  L_1       
     e(  8 -  8) =     27.72818  eV     1   --> A_1  L_1       

 **************************************************************************

 **************************************************************************

                    xk=(   0.20000,   0.20000,   0.20000  )

     Band symmetry, C_3v (3m)   point group:

     e(  1 -  1) =     -6.94255  eV     1   --> A_1  L_1       
     e(  2 -  2) =      8.65696  eV     1   --> A_1  L_1       
     e(  3 -  4) =     12.23397  eV     2   --> E    L_3       
     e(  5 -  6) =     20.95110  eV     2   --> E    L_3       
     e(  7 -  7) =     21.44295  eV     1   --> A_1  L_1       
     e(  8 -  8) =     28.06562  eV     1   --> A_1  L_1       

 **************************************************************************

 **************************************************************************

                    xk=(   0.25000,   0.25000,   0.25000  )

     Band symmetry, C_3v (3m)   point group:

     e(  1 -  1) =     -6.32388  eV     1   --> A_1  L_1       
     e(  2 -  2) =      6.93265  eV     1   --> A_1  L_1       
     e(  3 -  4) =     11.80533  eV     2   --> E    L_3       
     e(  5 -  6) =     21.43736  eV     2   --> E    L_3       
     e(  7 -  7) =     21.87811  eV     1   --> A_1  L_1       
     e(  8 -  8) =     28.43886  eV     1   --> A_1  L_1       

 **************************************************************************

 **************************************************************************

                    xk=(   0.30000,   0.30000,   0.30000  )

     Band symmetry, C_3v (3m)   point group:

     e(  1 -  1) =     -5.57613  eV     1   --> A_1  L_1       
     e(  2 -  2) =      5.23067  eV     1   --> A_1  L_1       
     e(  3 -  4) =     11.43314  eV     2   --> E    L_3       
     e(  5 -  6) =     21.78141  eV     2   --> E    L_3       
     e(  7 -  7) =     22.19130  eV     1   --> A_1  L_1       
     e(  8 -  8) =     28.79427  eV     1   --> A_1  L_1       

 **************************************************************************

 **************************************************************************

                    xk=(   0.35000,   0.35000,   0.35000  )

     Band symmetry, C_3v (3m)   point group:

     e(  1 -  1) =     -4.70880  eV     1   --> A_1  L_1       
     e(  2 -  2) =      3.59457  eV     1   --> A_1  L_1       
     e(  3 -  4) =     11.13345  eV     2   --> E    L_3       
     e(  5 -  6) =     21.98162  eV     2   --> E    L_3       
     e(  7 -  7) =     22.40918  eV     1   --> A_1  L_1       
     e(  8 -  8) =     29.08067  eV     1   --> A_1  L_1       

 **************************************************************************

 **************************************************************************

                    xk=(   0.40000,   0.40000,   0.40000  )

     Band symmetry, C_3v (3m)   point group:

     e(  1 -  1) =     -3.74504  eV     1   --> A_1  L_1       
     e(  2 -  2) =      2.06866  eV     1   --> A_1  L_1       
     e(  3 -  4) =     10.91433  eV     2   --> E    L_3       
     e(  5 -  6) =     22.07370  eV     2   --> E    L_3       
     e(  7 -  7) =     22.55178  eV     1   --> A_1  L_1       
     e(  8 -  8) =     29.26980  eV     1   --> A_1  L_1       

 **************************************************************************

 **************************************************************************

                    xk=(   0.45000,   0.45000,   0.45000  )

     Band symmetry, C_3v (3m)   point group:

     e(  1 -  1) =     -2.76598  eV     1   --> A_1  L_1       
     e(  2 -  2) =      0.74761  eV     1   --> A_1  L_1       
     e(  3 -  4) =     10.78192  eV     2   --> E    L_3       
     e(  5 -  6) =     22.10606  eV     2   --> E    L_3       
     e(  7 -  7) =     22.63306  eV     1   --> A_1  L_1       
     e(  8 -  8) =     29.36909  eV     1   --> A_1  L_1       

 **************************************************************************

 **************************************************************************

                    xk=(   0.50000,   0.50000,   0.50000  )

     zone border point and non-symmorphic group 
     symmetry decomposition not available

 **************************************************************************

 **************************************************************************

                    xk=(   0.47500,   0.47500,   0.47500  )

     point group C_3v (3m)  
     there are  3 classes
     the character table:

       E     2C3   3s_v 
A_1    1.00  1.00  1.00
A_2    1.00  1.00 -1.00
E      2.00 -1.00  0.00

     the symmetry operations in each class and the name of the first element:

     E        1
                                                                 
     2C3      2    3
                                                                 
     3s_v     4    5    6
                                                                 

     Band symmetry, C_3v (3m)   point group:

     e(  1 -  1) =     -2.36946  eV     1   --> A_1  L_1       
     e(  2 -  2) =      0.26506  eV     1   --> A_1  L_1       
     e(  3 -  4) =     10.74848  eV     2   --> E    L_3       
     e(  5 -  6) =     22.11098  eV     2   --> E    L_3       
     e(  7 -  7) =     22.65281  eV     1   --> A_1  L_1       
     e(  8 -  8) =     29.39014  eV     1   --> A_1  L_1       

 **************************************************************************

 **************************************************************************

                    xk=(   0.45000,   0.45000,   0.45000  )

     Band symmetry, C_3v (3m)   point group:

     e(  1 -  1) =     -2.76598  eV     1   --> A_1  L_1       
     e(  2 -  2) =      0.74761  eV     1   --> A_1  L_1       
     e(  3 -  4) =     10.78192  eV     2   --> E    L_3       
     e(  5 -  6) =     22.10606  eV     2   --> E    L_3       
     e(  7 -  7) =     22.63306  eV     1   --> A_1  L_1       
     e(  8 -  8) =     29.36909  eV     1   --> A_1  L_1       

 **************************************************************************

 **************************************************************************

                    xk=(   0.42500,   0.42500,   0.42500  )

     Band symmetry, C_3v (3m)   point group:

     e(  1 -  1) =     -3.24625  eV     1   --> A_1  L_1       
     e(  2 -  2) =      1.37078  eV     1   --> A_1  L_1       
     e(  3 -  4) =     10.83720  eV     2   --> E    L_3       
     e(  5 -  6) =     22.09476  eV     2   --> E    L_3       
     e(  7 -  7) =     22.59958  eV     1   --> A_1  L_1       
     e(  8 -  8) =     29.33005  eV     1   --> A_1  L_1       

 **************************************************************************

 **************************************************************************

                    xk=(   0.40000,   0.40000,   0.40000  )

     Band symmetry, C_3v (3m)   point group:

     e(  1 -  1) =     -3.74504  eV     1   --> A_1  L_1       
     e(  2 -  2) =      2.06866  eV     1   --> A_1  L_1       
     e(  3 -  4) =     10.91433  eV     2   --> E    L_3       
     e(  5 -  6) =     22.07370  eV     2   --> E    L_3       
     e(  7 -  7) =     22.55178  eV     1   --> A_1  L_1       
     e(  8 -  8) =     29.26980  eV     1   --> A_1  L_1       

 **************************************************************************

 **************************************************************************

                    xk=(   0.37500,   0.37500,   0.37500  )

     Band symmetry, C_3v (3m)   point group:

     e(  1 -  1) =     -4.23639  eV     1   --> A_1  L_1       
     e(  2 -  2) =      2.81427  eV     1   --> A_1  L_1       
     e(  3 -  4) =     11.01336  eV     2   --> E    L_3       
     e(  5 -  6) =     22.03813  eV     2   --> E    L_3       
     e(  7 -  7) =     22.48880  eV     1   --> A_1  L_1       
     e(  8 -  8) =     29.18776  eV     1   --> A_1  L_1       

 **************************************************************************

 **************************************************************************

                    xk=(   0.35000,   0.35000,   0.35000  )

     Band symmetry, C_3v (3m)   point group:

     e(  1 -  1) =     -4.70880  eV     1   --> A_1  L_1       
     e(  2 -  2) =      3.59457  eV     1   --> A_1  L_1       
     e(  3 -  4) =     11.13345  eV     2   --> E    L_3       
     e(  5 -  6) =     21.98162  eV     2   --> E    L_3       
     e(  7 -  7) =     22.40918  eV     1   --> A_1  L_1       
     e(  8 -  8) =     29.08067  eV     1   --> A_1  L_1       

 **************************************************************************

 **************************************************************************

                    xk=(   0.32500,   0.32500,   0.32500  )

     Band symmetry, C_3v (3m)   point group:

     e(  1 -  1) =     -5.15645  eV     1   --> A_1  L_1       
     e(  2 -  2) =      4.40193  eV     1   --> A_1  L_1       
     e(  3 -  4) =     11.27356  eV     2   --> E    L_3       
     e(  5 -  6) =     21.89794  eV     2   --> E    L_3       
     e(  7 -  7) =     22.31082  eV     1   --> A_1  L_1       
     e(  8 -  8) =     28.94867  eV     1   --> A_1  L_1       

 **************************************************************************

 **************************************************************************

                    xk=(   0.30000,   0.30000,   0.30000  )

     Band symmetry, C_3v (3m)   point group:

     e(  1 -  1) =     -5.57613  eV     1   --> A_1  L_1       
     e(  2 -  2) =      5.23067  eV     1   --> A_1  L_1       
     e(  3 -  4) =     11.43314  eV     2   --> E    L_3       
     e(  5 -  6) =     21.78141  eV     2   --> E    L_3       
     e(  7 -  7) =     22.19130  eV     1   --> A_1  L_1       
     e(  8 -  8) =     28.79427  eV     1   --> A_1  L_1       

 **************************************************************************

 **************************************************************************

                    xk=(   0.27500,   0.27500,   0.27500  )

     Band symmetry, C_3v (3m)   point group:

     e(  1 -  1) =     -5.96570  eV     1   --> A_1  L_1       
     e(  2 -  2) =      6.07590  eV     1   --> A_1  L_1       
     e(  3 -  4) =     11.61096  eV     2   --> E    L_3       
     e(  5 -  6) =     21.62844  eV     2   --> E    L_3       
     e(  7 -  7) =     22.04810  eV     1   --> A_1  L_1       
     e(  8 -  8) =     28.62224  eV     1   --> A_1  L_1       

 **************************************************************************

 **************************************************************************

                    xk=(   0.25000,   0.25000,   0.25000  )

     Band symmetry, C_3v (3m)   point group:

     e(  1 -  1) =     -6.32388  eV     1   --> A_1  L_1       
     e(  2 -  2) =      6.93265  eV     1   --> A_1  L_1       
     e(  3 -  4) =     11.80533  eV     2   --> E    L_3       
     e(  5 -  6) =     21.43736  eV     2   --> E    L_3       
     e(  7 -  7) =     21.87811  eV     1   --> A_1  L_1       
     e(  8 -  8) =     28.43886  eV     1   --> A_1  L_1       

 **************************************************************************

     BANDS        :      0.38s CPU      0.41s WALL


   This run was terminated on:  14:29: 0   6Oct2024            

=------------------------------------------------------------------------------=
   JOB DONE.
=------------------------------------------------------------------------------=
