
     Program PWSCF v.7.3.1 starts on  6Oct2024 at 14:28:57 

     This program is part of the open-source Quantum ESPRESSO suite
     for quantum simulation of materials; please cite
         "P. Giannozzi et al., J. Phys.:Condens. Matter 21 395502 (2009);
         "P. Giannozzi et al., J. Phys.:Condens. Matter 29 465901 (2017);
         "P. Giannozzi et al., J. Chem. Phys. 152 154105 (2020);
          URL http://www.quantum-espresso.org", 
     in publications or presentations arising from this work. More details at
     http://www.quantum-espresso.org/quote

     Parallel version (MPI & OpenMP), running on       2 processor cores
     Number of MPI processes:                 2
     Threads/MPI process:                     1

     MPI processes distributed on     1 nodes
     479096 MiB available memory on the printing compute node when the environment starts

     Waiting for input...
     Reading input from standard input
Warning: card &IONS ignored
Warning: card / ignored

     Current dimensions of program PWSCF are:
     Max number of different atomic species (ntypx) = 10
     Max number of k-points (npk) =  40000
     Max angular momentum in pseudopotentials (lmaxx) =  4
     Message from routine set_cutoff:
     ecutrho < 4*ecutwfc, are you sure?

     Atomic positions and unit cell read from directory:
     ./diamond.save/


     R & G space division:  proc/nbgrp/npool/nimage =       2
     Subspace diagonalization in iterative solution of the eigenvalue problem:
     a serial algorithm will be used


     Parallelization info
     --------------------
     sticks:   dense  smooth     PW     G-vecs:    dense   smooth      PW
     Min         156     156     63                 1823     1823     482
     Max         157     157     64                 1824     1824     483
     Sum         313     313    127                 3647     3647     965

     Using Slab Decomposition



     bravais-lattice index     =            2
     lattice parameter (alat)  =       6.7080  a.u.
     unit-cell volume          =      75.4604 (a.u.)^3
     number of atoms/cell      =            2
     number of atomic types    =            1
     number of electrons       =         8.00
     number of Kohn-Sham states=            8
     kinetic-energy cutoff     =      70.0000  Ry
     charge density cutoff     =     200.0000  Ry
     Exchange-correlation= PBE
                           (   1   4   3   4   0   0   0)

     celldm(1)=   6.708000  celldm(2)=   0.000000  celldm(3)=   0.000000
     celldm(4)=   0.000000  celldm(5)=   0.000000  celldm(6)=   0.000000

     crystal axes: (cart. coord. in units of alat)
               a(1) = (  -0.500000   0.000000   0.500000 )  
               a(2) = (   0.000000   0.500000   0.500000 )  
               a(3) = (  -0.500000   0.500000   0.000000 )  

     reciprocal axes: (cart. coord. in units 2 pi/alat)
               b(1) = ( -1.000000 -1.000000  1.000000 )  
               b(2) = (  1.000000  1.000000  1.000000 )  
               b(3) = ( -1.000000  1.000000 -1.000000 )  


     PseudoPot. # 1 for C  read from file:
     ./C_ONCV_PBE-1.0.upf
     MD5 check sum: 40f8c33130f0afa4272e9dcc1c4fb0df
     Pseudo is Norm-conserving, Zval =  4.0
     Generated using ONCVPSP code by D. R. Hamann
     Using radial grid of  602 points,  4 beta functions with: 
                l(1) =   0
                l(2) =   0
                l(3) =   1
                l(4) =   1

     atomic species   valence    mass     pseudopotential
     C                 4.00    12.00000     C ( 1.00)

     48 Sym. Ops., with inversion, found (24 have fractional translation)


                                    s                        frac. trans.

      isym =  1     identity                                     

 cryst.   s( 1) = (     1          0          0      )
                  (     0          1          0      )
                  (     0          0          1      )

 cart.    s( 1) = (  1.0000000  0.0000000  0.0000000 )
                  (  0.0000000  1.0000000  0.0000000 )
                  (  0.0000000  0.0000000  1.0000000 )


      isym =  2     180 deg rotation - cart. axis [0,0,1]        

 cryst.   s( 2) = (     0          1         -1      )
                  (     1          0         -1      )
                  (     0          0         -1      )

 cart.    s( 2) = ( -1.0000000  0.0000000  0.0000000 )
                  (  0.0000000 -1.0000000  0.0000000 )
                  (  0.0000000  0.0000000  1.0000000 )


      isym =  3     180 deg rotation - cart. axis [0,1,0]        

 cryst.   s( 3) = (    -1          0          0      )
                  (    -1          0          1      )
                  (    -1          1          0      )

 cart.    s( 3) = ( -1.0000000  0.0000000  0.0000000 )
                  (  0.0000000  1.0000000  0.0000000 )
                  (  0.0000000  0.0000000 -1.0000000 )


      isym =  4     180 deg rotation - cart. axis [1,0,0]        

 cryst.   s( 4) = (     0         -1          1      )
                  (     0         -1          0      )
                  (     1         -1          0      )

 cart.    s( 4) = (  1.0000000  0.0000000  0.0000000 )
                  (  0.0000000 -1.0000000  0.0000000 )
                  (  0.0000000  0.0000000 -1.0000000 )


      isym =  5     180 deg rotation - cart. axis [1,1,0]        

 cryst.   s( 5) = (     0         -1          0      )    f =(  0.2500000 )
                  (    -1          0          0      )       (  0.2500000 )
                  (     0          0         -1      )       (  0.2500000 )

 cart.    s( 5) = (  0.0000000  1.0000000  0.0000000 )    f =( -0.2500000 )
                  (  1.0000000  0.0000000  0.0000000 )       (  0.2500000 )
                  (  0.0000000  0.0000000 -1.0000000 )       (  0.2500000 )


      isym =  6     180 deg rotation - cart. axis [1,-1,0]       

 cryst.   s( 6) = (    -1          0          1      )    f =(  0.2500000 )
                  (     0         -1          1      )       (  0.2500000 )
                  (     0          0          1      )       (  0.2500000 )

 cart.    s( 6) = (  0.0000000 -1.0000000  0.0000000 )    f =( -0.2500000 )
                  ( -1.0000000  0.0000000  0.0000000 )       (  0.2500000 )
                  (  0.0000000  0.0000000 -1.0000000 )       (  0.2500000 )


      isym =  7      90 deg rotation - cart. axis [0,0,-1]       

 cryst.   s( 7) = (     0          1          0      )    f =(  0.2500000 )
                  (     0          1         -1      )       (  0.2500000 )
                  (    -1          1          0      )       (  0.2500000 )

 cart.    s( 7) = (  0.0000000  1.0000000  0.0000000 )    f =( -0.2500000 )
                  ( -1.0000000  0.0000000  0.0000000 )       (  0.2500000 )
                  (  0.0000000  0.0000000  1.0000000 )       (  0.2500000 )


      isym =  8      90 deg rotation - cart. axis [0,0,1]        

 cryst.   s( 8) = (     1          0         -1      )    f =(  0.2500000 )
                  (     1          0          0      )       (  0.2500000 )
                  (     1         -1          0      )       (  0.2500000 )

 cart.    s( 8) = (  0.0000000 -1.0000000  0.0000000 )    f =( -0.2500000 )
                  (  1.0000000  0.0000000  0.0000000 )       (  0.2500000 )
                  (  0.0000000  0.0000000  1.0000000 )       (  0.2500000 )


      isym =  9     180 deg rotation - cart. axis [1,0,1]        

 cryst.   s( 9) = (    -1          0          0      )    f =(  0.2500000 )
                  (     0          0         -1      )       (  0.2500000 )
                  (     0         -1          0      )       (  0.2500000 )

 cart.    s( 9) = (  0.0000000  0.0000000  1.0000000 )    f =( -0.2500000 )
                  (  0.0000000 -1.0000000  0.0000000 )       (  0.2500000 )
                  (  1.0000000  0.0000000  0.0000000 )       (  0.2500000 )


      isym = 10     180 deg rotation - cart. axis [-1,0,1]       

 cryst.   s(10) = (     1          0          0      )    f =(  0.2500000 )
                  (     1         -1          0      )       (  0.2500000 )
                  (     1          0         -1      )       (  0.2500000 )

 cart.    s(10) = (  0.0000000  0.0000000 -1.0000000 )    f =( -0.2500000 )
                  (  0.0000000 -1.0000000  0.0000000 )       (  0.2500000 )
                  ( -1.0000000  0.0000000  0.0000000 )       (  0.2500000 )


      isym = 11      90 deg rotation - cart. axis [0,1,0]        

 cryst.   s(11) = (     0          1         -1      )    f =(  0.2500000 )
                  (    -1          1          0      )       (  0.2500000 )
                  (     0          1          0      )       (  0.2500000 )

 cart.    s(11) = (  0.0000000  0.0000000  1.0000000 )    f =( -0.2500000 )
                  (  0.0000000  1.0000000  0.0000000 )       (  0.2500000 )
                  ( -1.0000000  0.0000000  0.0000000 )       (  0.2500000 )


      isym = 12      90 deg rotation - cart. axis [0,-1,0]       

 cryst.   s(12) = (     0         -1          1      )    f =(  0.2500000 )
                  (     0          0          1      )       (  0.2500000 )
                  (    -1          0          1      )       (  0.2500000 )

 cart.    s(12) = (  0.0000000  0.0000000 -1.0000000 )    f =( -0.2500000 )
                  (  0.0000000  1.0000000  0.0000000 )       (  0.2500000 )
                  (  1.0000000  0.0000000  0.0000000 )       (  0.2500000 )


      isym = 13     180 deg rotation - cart. axis [0,1,1]        

 cryst.   s(13) = (    -1          1          0      )    f =(  0.2500000 )
                  (     0          1          0      )       (  0.2500000 )
                  (     0          1         -1      )       (  0.2500000 )

 cart.    s(13) = ( -1.0000000  0.0000000  0.0000000 )    f =( -0.2500000 )
                  (  0.0000000  0.0000000  1.0000000 )       (  0.2500000 )
                  (  0.0000000  1.0000000  0.0000000 )       (  0.2500000 )


      isym = 14     180 deg rotation - cart. axis [0,1,-1]       

 cryst.   s(14) = (     0          0         -1      )    f =(  0.2500000 )
                  (     0         -1          0      )       (  0.2500000 )
                  (    -1          0          0      )       (  0.2500000 )

 cart.    s(14) = ( -1.0000000  0.0000000  0.0000000 )    f =( -0.2500000 )
                  (  0.0000000  0.0000000 -1.0000000 )       (  0.2500000 )
                  (  0.0000000 -1.0000000  0.0000000 )       (  0.2500000 )


      isym = 15      90 deg rotation - cart. axis [-1,0,0]       

 cryst.   s(15) = (     0          0          1      )    f =(  0.2500000 )
                  (    -1          0          1      )       (  0.2500000 )
                  (     0         -1          1      )       (  0.2500000 )

 cart.    s(15) = (  1.0000000  0.0000000  0.0000000 )    f =( -0.2500000 )
                  (  0.0000000  0.0000000  1.0000000 )       (  0.2500000 )
                  (  0.0000000 -1.0000000  0.0000000 )       (  0.2500000 )


      isym = 16      90 deg rotation - cart. axis [1,0,0]        

 cryst.   s(16) = (     1         -1          0      )    f =(  0.2500000 )
                  (     1          0         -1      )       (  0.2500000 )
                  (     1          0          0      )       (  0.2500000 )

 cart.    s(16) = (  1.0000000  0.0000000  0.0000000 )    f =( -0.2500000 )
                  (  0.0000000  0.0000000 -1.0000000 )       (  0.2500000 )
                  (  0.0000000  1.0000000  0.0000000 )       (  0.2500000 )


      isym = 17     120 deg rotation - cart. axis [-1,-1,-1]     

 cryst.   s(17) = (    -1          0          1      )
                  (    -1          1          0      )
                  (    -1          0          0      )

 cart.    s(17) = (  0.0000000  1.0000000  0.0000000 )
                  (  0.0000000  0.0000000  1.0000000 )
                  (  1.0000000  0.0000000  0.0000000 )


      isym = 18     120 deg rotation - cart. axis [-1,1,1]       

 cryst.   s(18) = (     0          1          0      )
                  (     0          0          1      )
                  (     1          0          0      )

 cart.    s(18) = (  0.0000000 -1.0000000  0.0000000 )
                  (  0.0000000  0.0000000  1.0000000 )
                  ( -1.0000000  0.0000000  0.0000000 )


      isym = 19     120 deg rotation - cart. axis [1,1,-1]       

 cryst.   s(19) = (     1          0         -1      )
                  (     0          0         -1      )
                  (     0          1         -1      )

 cart.    s(19) = (  0.0000000  1.0000000  0.0000000 )
                  (  0.0000000  0.0000000 -1.0000000 )
                  ( -1.0000000  0.0000000  0.0000000 )


      isym = 20     120 deg rotation - cart. axis [1,-1,1]       

 cryst.   s(20) = (     0         -1          0      )
                  (     1         -1          0      )
                  (     0         -1          1      )

 cart.    s(20) = (  0.0000000 -1.0000000  0.0000000 )
                  (  0.0000000  0.0000000 -1.0000000 )
                  (  1.0000000  0.0000000  0.0000000 )


      isym = 21     120 deg rotation - cart. axis [1,1,1]        

 cryst.   s(21) = (     0          0         -1      )
                  (     0          1         -1      )
                  (     1          0         -1      )

 cart.    s(21) = (  0.0000000  0.0000000  1.0000000 )
                  (  1.0000000  0.0000000  0.0000000 )
                  (  0.0000000  1.0000000  0.0000000 )


      isym = 22     120 deg rotation - cart. axis [-1,1,-1]      

 cryst.   s(22) = (    -1          1          0      )
                  (    -1          0          0      )
                  (    -1          0          1      )

 cart.    s(22) = (  0.0000000  0.0000000  1.0000000 )
                  ( -1.0000000  0.0000000  0.0000000 )
                  (  0.0000000 -1.0000000  0.0000000 )


      isym = 23     120 deg rotation - cart. axis [1,-1,-1]      

 cryst.   s(23) = (     0          0          1      )
                  (     1          0          0      )
                  (     0          1          0      )

 cart.    s(23) = (  0.0000000  0.0000000 -1.0000000 )
                  ( -1.0000000  0.0000000  0.0000000 )
                  (  0.0000000  1.0000000  0.0000000 )


      isym = 24     120 deg rotation - cart. axis [-1,-1,1]      

 cryst.   s(24) = (     1         -1          0      )
                  (     0         -1          1      )
                  (     0         -1          0      )

 cart.    s(24) = (  0.0000000  0.0000000 -1.0000000 )
                  (  1.0000000  0.0000000  0.0000000 )
                  (  0.0000000 -1.0000000  0.0000000 )


      isym = 25     inversion                                    

 cryst.   s(25) = (    -1          0          0      )    f =(  0.2500000 )
                  (     0         -1          0      )       (  0.2500000 )
                  (     0          0         -1      )       (  0.2500000 )

 cart.    s(25) = ( -1.0000000  0.0000000  0.0000000 )    f =( -0.2500000 )
                  (  0.0000000 -1.0000000  0.0000000 )       (  0.2500000 )
                  (  0.0000000  0.0000000 -1.0000000 )       (  0.2500000 )


      isym = 26     inv. 180 deg rotation - cart. axis [0,0,1]   

 cryst.   s(26) = (     0         -1          1      )    f =(  0.2500000 )
                  (    -1          0          1      )       (  0.2500000 )
                  (     0          0          1      )       (  0.2500000 )

 cart.    s(26) = (  1.0000000  0.0000000  0.0000000 )    f =( -0.2500000 )
                  (  0.0000000  1.0000000  0.0000000 )       (  0.2500000 )
                  (  0.0000000  0.0000000 -1.0000000 )       (  0.2500000 )


      isym = 27     inv. 180 deg rotation - cart. axis [0,1,0]   

 cryst.   s(27) = (     1          0          0      )    f =(  0.2500000 )
                  (     1          0         -1      )       (  0.2500000 )
                  (     1         -1          0      )       (  0.2500000 )

 cart.    s(27) = (  1.0000000  0.0000000  0.0000000 )    f =( -0.2500000 )
                  (  0.0000000 -1.0000000  0.0000000 )       (  0.2500000 )
                  (  0.0000000  0.0000000  1.0000000 )       (  0.2500000 )


      isym = 28     inv. 180 deg rotation - cart. axis [1,0,0]   

 cryst.   s(28) = (     0          1         -1      )    f =(  0.2500000 )
                  (     0          1          0      )       (  0.2500000 )
                  (    -1          1          0      )       (  0.2500000 )

 cart.    s(28) = ( -1.0000000  0.0000000  0.0000000 )    f =( -0.2500000 )
                  (  0.0000000  1.0000000  0.0000000 )       (  0.2500000 )
                  (  0.0000000  0.0000000  1.0000000 )       (  0.2500000 )


      isym = 29     inv. 180 deg rotation - cart. axis [1,1,0]   

 cryst.   s(29) = (     0          1          0      )
                  (     1          0          0      )
                  (     0          0          1      )

 cart.    s(29) = (  0.0000000 -1.0000000  0.0000000 )
                  ( -1.0000000  0.0000000  0.0000000 )
                  (  0.0000000  0.0000000  1.0000000 )


      isym = 30     inv. 180 deg rotation - cart. axis [1,-1,0]  

 cryst.   s(30) = (     1          0         -1      )
                  (     0          1         -1      )
                  (     0          0         -1      )

 cart.    s(30) = (  0.0000000  1.0000000  0.0000000 )
                  (  1.0000000  0.0000000  0.0000000 )
                  (  0.0000000  0.0000000  1.0000000 )


      isym = 31     inv.  90 deg rotation - cart. axis [0,0,-1]  

 cryst.   s(31) = (     0         -1          0      )
                  (     0         -1          1      )
                  (     1         -1          0      )

 cart.    s(31) = (  0.0000000 -1.0000000  0.0000000 )
                  (  1.0000000  0.0000000  0.0000000 )
                  (  0.0000000  0.0000000 -1.0000000 )


      isym = 32     inv.  90 deg rotation - cart. axis [0,0,1]   

 cryst.   s(32) = (    -1          0          1      )
                  (    -1          0          0      )
                  (    -1          1          0      )

 cart.    s(32) = (  0.0000000  1.0000000  0.0000000 )
                  ( -1.0000000  0.0000000  0.0000000 )
                  (  0.0000000  0.0000000 -1.0000000 )


      isym = 33     inv. 180 deg rotation - cart. axis [1,0,1]   

 cryst.   s(33) = (     1          0          0      )
                  (     0          0          1      )
                  (     0          1          0      )

 cart.    s(33) = (  0.0000000  0.0000000 -1.0000000 )
                  (  0.0000000  1.0000000  0.0000000 )
                  ( -1.0000000  0.0000000  0.0000000 )


      isym = 34     inv. 180 deg rotation - cart. axis [-1,0,1]  

 cryst.   s(34) = (    -1          0          0      )
                  (    -1          1          0      )
                  (    -1          0          1      )

 cart.    s(34) = (  0.0000000  0.0000000  1.0000000 )
                  (  0.0000000  1.0000000  0.0000000 )
                  (  1.0000000  0.0000000  0.0000000 )


      isym = 35     inv.  90 deg rotation - cart. axis [0,1,0]   

 cryst.   s(35) = (     0         -1          1      )
                  (     1         -1          0      )
                  (     0         -1          0      )

 cart.    s(35) = (  0.0000000  0.0000000 -1.0000000 )
                  (  0.0000000 -1.0000000  0.0000000 )
                  (  1.0000000  0.0000000  0.0000000 )


      isym = 36     inv.  90 deg rotation - cart. axis [0,-1,0]  

 cryst.   s(36) = (     0          1         -1      )
                  (     0          0         -1      )
                  (     1          0         -1      )

 cart.    s(36) = (  0.0000000  0.0000000  1.0000000 )
                  (  0.0000000 -1.0000000  0.0000000 )
                  ( -1.0000000  0.0000000  0.0000000 )


      isym = 37     inv. 180 deg rotation - cart. axis [0,1,1]   

 cryst.   s(37) = (     1         -1          0      )
                  (     0         -1          0      )
                  (     0         -1          1      )

 cart.    s(37) = (  1.0000000  0.0000000  0.0000000 )
                  (  0.0000000  0.0000000 -1.0000000 )
                  (  0.0000000 -1.0000000  0.0000000 )


      isym = 38     inv. 180 deg rotation - cart. axis [0,1,-1]  

 cryst.   s(38) = (     0          0          1      )
                  (     0          1          0      )
                  (     1          0          0      )

 cart.    s(38) = (  1.0000000  0.0000000  0.0000000 )
                  (  0.0000000  0.0000000  1.0000000 )
                  (  0.0000000  1.0000000  0.0000000 )


      isym = 39     inv.  90 deg rotation - cart. axis [-1,0,0]  

 cryst.   s(39) = (     0          0         -1      )
                  (     1          0         -1      )
                  (     0          1         -1      )

 cart.    s(39) = ( -1.0000000  0.0000000  0.0000000 )
                  (  0.0000000  0.0000000 -1.0000000 )
                  (  0.0000000  1.0000000  0.0000000 )


      isym = 40     inv.  90 deg rotation - cart. axis [1,0,0]   

 cryst.   s(40) = (    -1          1          0      )
                  (    -1          0          1      )
                  (    -1          0          0      )

 cart.    s(40) = ( -1.0000000  0.0000000  0.0000000 )
                  (  0.0000000  0.0000000  1.0000000 )
                  (  0.0000000 -1.0000000  0.0000000 )


      isym = 41     inv. 120 deg rotation - cart. axis [-1,-1,-1]

 cryst.   s(41) = (     1          0         -1      )    f =(  0.2500000 )
                  (     1         -1          0      )       (  0.2500000 )
                  (     1          0          0      )       (  0.2500000 )

 cart.    s(41) = (  0.0000000 -1.0000000  0.0000000 )    f =( -0.2500000 )
                  (  0.0000000  0.0000000 -1.0000000 )       (  0.2500000 )
                  ( -1.0000000  0.0000000  0.0000000 )       (  0.2500000 )


      isym = 42     inv. 120 deg rotation - cart. axis [-1,1,1]  

 cryst.   s(42) = (     0         -1          0      )    f =(  0.2500000 )
                  (     0          0         -1      )       (  0.2500000 )
                  (    -1          0          0      )       (  0.2500000 )

 cart.    s(42) = (  0.0000000  1.0000000  0.0000000 )    f =( -0.2500000 )
                  (  0.0000000  0.0000000 -1.0000000 )       (  0.2500000 )
                  (  1.0000000  0.0000000  0.0000000 )       (  0.2500000 )


      isym = 43     inv. 120 deg rotation - cart. axis [1,1,-1]  

 cryst.   s(43) = (    -1          0          1      )    f =(  0.2500000 )
                  (     0          0          1      )       (  0.2500000 )
                  (     0         -1          1      )       (  0.2500000 )

 cart.    s(43) = (  0.0000000 -1.0000000  0.0000000 )    f =( -0.2500000 )
                  (  0.0000000  0.0000000  1.0000000 )       (  0.2500000 )
                  (  1.0000000  0.0000000  0.0000000 )       (  0.2500000 )


      isym = 44     inv. 120 deg rotation - cart. axis [1,-1,1]  

 cryst.   s(44) = (     0          1          0      )    f =(  0.2500000 )
                  (    -1          1          0      )       (  0.2500000 )
                  (     0          1         -1      )       (  0.2500000 )

 cart.    s(44) = (  0.0000000  1.0000000  0.0000000 )    f =( -0.2500000 )
                  (  0.0000000  0.0000000  1.0000000 )       (  0.2500000 )
                  ( -1.0000000  0.0000000  0.0000000 )       (  0.2500000 )


      isym = 45     inv. 120 deg rotation - cart. axis [1,1,1]   

 cryst.   s(45) = (     0          0          1      )    f =(  0.2500000 )
                  (     0         -1          1      )       (  0.2500000 )
                  (    -1          0          1      )       (  0.2500000 )

 cart.    s(45) = (  0.0000000  0.0000000 -1.0000000 )    f =( -0.2500000 )
                  ( -1.0000000  0.0000000  0.0000000 )       (  0.2500000 )
                  (  0.0000000 -1.0000000  0.0000000 )       (  0.2500000 )


      isym = 46     inv. 120 deg rotation - cart. axis [-1,1,-1] 

 cryst.   s(46) = (     1         -1          0      )    f =(  0.2500000 )
                  (     1          0          0      )       (  0.2500000 )
                  (     1          0         -1      )       (  0.2500000 )

 cart.    s(46) = (  0.0000000  0.0000000 -1.0000000 )    f =( -0.2500000 )
                  (  1.0000000  0.0000000  0.0000000 )       (  0.2500000 )
                  (  0.0000000  1.0000000  0.0000000 )       (  0.2500000 )


      isym = 47     inv. 120 deg rotation - cart. axis [1,-1,-1] 

 cryst.   s(47) = (     0          0         -1      )    f =(  0.2500000 )
                  (    -1          0          0      )       (  0.2500000 )
                  (     0         -1          0      )       (  0.2500000 )

 cart.    s(47) = (  0.0000000  0.0000000  1.0000000 )    f =( -0.2500000 )
                  (  1.0000000  0.0000000  0.0000000 )       (  0.2500000 )
                  (  0.0000000 -1.0000000  0.0000000 )       (  0.2500000 )


      isym = 48     inv. 120 deg rotation - cart. axis [-1,-1,1] 

 cryst.   s(48) = (    -1          1          0      )    f =(  0.2500000 )
                  (     0          1         -1      )       (  0.2500000 )
                  (     0          1          0      )       (  0.2500000 )

 cart.    s(48) = (  0.0000000  0.0000000  1.0000000 )    f =( -0.2500000 )
                  ( -1.0000000  0.0000000  0.0000000 )       (  0.2500000 )
                  (  0.0000000  1.0000000  0.0000000 )       (  0.2500000 )


     point group O_h (m-3m) 
     there are 10 classes
     the character table:

       E     8C3   3C2   6C4   6C2'  i     8S6   3s_h  6S4   6s_d 
A_1g   1.00  1.00  1.00  1.00  1.00  1.00  1.00  1.00  1.00  1.00
A_2g   1.00  1.00  1.00 -1.00 -1.00  1.00  1.00  1.00 -1.00 -1.00
E_g    2.00 -1.00  2.00  0.00  0.00  2.00 -1.00  2.00  0.00  0.00
T_1g   3.00  0.00 -1.00  1.00 -1.00  3.00  0.00 -1.00  1.00 -1.00
T_2g   3.00  0.00 -1.00 -1.00  1.00  3.00  0.00 -1.00 -1.00  1.00
A_1u   1.00  1.00  1.00  1.00  1.00 -1.00 -1.00 -1.00 -1.00 -1.00
A_2u   1.00  1.00  1.00 -1.00 -1.00 -1.00 -1.00 -1.00  1.00  1.00
E_u    2.00 -1.00  2.00  0.00  0.00 -2.00  1.00 -2.00  0.00  0.00
T_1u   3.00  0.00 -1.00  1.00 -1.00 -3.00  0.00  1.00 -1.00  1.00
T_2u   3.00  0.00 -1.00 -1.00  1.00 -3.00  0.00  1.00  1.00 -1.00

     the symmetry operations in each class and the name of the first element:

     E        1
          identity                                               
     8C3     17   19   20   18   24   21   22   23
          120 deg rotation - cart. axis [-1,-1,-1]               
     3C2      2    4    3
          180 deg rotation - cart. axis [0,0,1]                  
     6C4      7    8   15   16   12   11
           90 deg rotation - cart. axis [0,0,-1]                 
     6C2'     5    6   14   13   10    9
          180 deg rotation - cart. axis [1,1,0]                  
     i       25
          inversion                                              
     8S6     41   43   44   42   48   45   46   47
          inv. 120 deg rotation - cart. axis [-1,-1,-1]          
     3s_h    26   28   27
          inv. 180 deg rotation - cart. axis [0,0,1]             
     6S4     31   32   39   40   36   35
          inv.  90 deg rotation - cart. axis [0,0,-1]            
     6s_d    29   30   38   37   34   33
          inv. 180 deg rotation - cart. axis [1,1,0]             

   Cartesian axes

     site n.     atom                  positions (alat units)
         1        C      tau(   1) = (   0.0000000   0.0000000   0.0000000  )
         2        C      tau(   2) = (   0.2500000   0.2500000   0.2500000  )

   Crystallographic axes

     site n.     atom                  positions (cryst. coord.)
         1        C      tau(   1) = (  0.0000000  0.0000000  0.0000000  )
         2        C      tau(   2) = ( -0.2500000  0.7500000 -0.2500000  )

     number of k points=    51
                       cart. coord. in units 2pi/alat
        k(    1) = (   0.0000000   0.0000000   0.0000000), wk =   0.0392157
        k(    2) = (   0.0500000   0.0000000   0.0500000), wk =   0.0392157
        k(    3) = (   0.1000000   0.0000000   0.1000000), wk =   0.0392157
        k(    4) = (   0.1500000   0.0000000   0.1500000), wk =   0.0392157
        k(    5) = (   0.2000000   0.0000000   0.2000000), wk =   0.0392157
        k(    6) = (   0.2500000   0.0000000   0.2500000), wk =   0.0392157
        k(    7) = (   0.3000000   0.0000000   0.3000000), wk =   0.0392157
        k(    8) = (   0.3500000   0.0000000   0.3500000), wk =   0.0392157
        k(    9) = (   0.4000000   0.0000000   0.4000000), wk =   0.0392157
        k(   10) = (   0.4500000   0.0000000   0.4500000), wk =   0.0392157
        k(   11) = (   0.5000000   0.0000000   0.5000000), wk =   0.0392157
        k(   12) = (   0.4875000   0.0375000   0.5250000), wk =   0.0392157
        k(   13) = (   0.4750000   0.0750000   0.5500000), wk =   0.0392157
        k(   14) = (   0.4625000   0.1125000   0.5750000), wk =   0.0392157
        k(   15) = (   0.4500000   0.1500000   0.6000000), wk =   0.0392157
        k(   16) = (   0.4375000   0.1875000   0.6250000), wk =   0.0392157
        k(   17) = (   0.4250000   0.2250000   0.6500000), wk =   0.0392157
        k(   18) = (   0.4125000   0.2625000   0.6750000), wk =   0.0392157
        k(   19) = (   0.4000000   0.3000000   0.7000000), wk =   0.0392157
        k(   20) = (   0.3875000   0.3375000   0.7250000), wk =   0.0392157
        k(   21) = (   0.3750000   0.3750000   0.7500000), wk =   0.0392157
        k(   22) = (   0.3375000   0.3375000   0.6750000), wk =   0.0392157
        k(   23) = (   0.3000000   0.3000000   0.6000000), wk =   0.0392157
        k(   24) = (   0.2625000   0.2625000   0.5250000), wk =   0.0392157
        k(   25) = (   0.2250000   0.2250000   0.4500000), wk =   0.0392157
        k(   26) = (   0.1875000   0.1875000   0.3750000), wk =   0.0392157
        k(   27) = (   0.1500000   0.1500000   0.3000000), wk =   0.0392157
        k(   28) = (   0.1125000   0.1125000   0.2250000), wk =   0.0392157
        k(   29) = (   0.0750000   0.0750000   0.1500000), wk =   0.0392157
        k(   30) = (   0.0375000   0.0375000   0.0750000), wk =   0.0392157
        k(   31) = (   0.0000000   0.0000000   0.0000000), wk =   0.0392157
        k(   32) = (   0.0500000   0.0500000   0.0500000), wk =   0.0392157
        k(   33) = (   0.1000000   0.1000000   0.1000000), wk =   0.0392157
        k(   34) = (   0.1500000   0.1500000   0.1500000), wk =   0.0392157
        k(   35) = (   0.2000000   0.2000000   0.2000000), wk =   0.0392157
        k(   36) = (   0.2500000   0.2500000   0.2500000), wk =   0.0392157
        k(   37) = (   0.3000000   0.3000000   0.3000000), wk =   0.0392157
        k(   38) = (   0.3500000   0.3500000   0.3500000), wk =   0.0392157
        k(   39) = (   0.4000000   0.4000000   0.4000000), wk =   0.0392157
        k(   40) = (   0.4500000   0.4500000   0.4500000), wk =   0.0392157
        k(   41) = (   0.5000000   0.5000000   0.5000000), wk =   0.0392157
        k(   42) = (   0.4750000   0.4750000   0.4750000), wk =   0.0392157
        k(   43) = (   0.4500000   0.4500000   0.4500000), wk =   0.0392157
        k(   44) = (   0.4250000   0.4250000   0.4250000), wk =   0.0392157
        k(   45) = (   0.4000000   0.4000000   0.4000000), wk =   0.0392157
        k(   46) = (   0.3750000   0.3750000   0.3750000), wk =   0.0392157
        k(   47) = (   0.3500000   0.3500000   0.3500000), wk =   0.0392157
        k(   48) = (   0.3250000   0.3250000   0.3250000), wk =   0.0392157
        k(   49) = (   0.3000000   0.3000000   0.3000000), wk =   0.0392157
        k(   50) = (   0.2750000   0.2750000   0.2750000), wk =   0.0392157
        k(   51) = (   0.2500000   0.2500000   0.2500000), wk =   0.0392157

                       cryst. coord.
        k(    1) = (   0.0000000   0.0000000   0.0000000), wk =   0.0392157
        k(    2) = (   0.0000000   0.0250000  -0.0250000), wk =   0.0392157
        k(    3) = (   0.0000000   0.0500000  -0.0500000), wk =   0.0392157
        k(    4) = (   0.0000000   0.0750000  -0.0750000), wk =   0.0392157
        k(    5) = (   0.0000000   0.1000000  -0.1000000), wk =   0.0392157
        k(    6) = (   0.0000000   0.1250000  -0.1250000), wk =   0.0392157
        k(    7) = (   0.0000000   0.1500000  -0.1500000), wk =   0.0392157
        k(    8) = (   0.0000000   0.1750000  -0.1750000), wk =   0.0392157
        k(    9) = (   0.0000000   0.2000000  -0.2000000), wk =   0.0392157
        k(   10) = (   0.0000000   0.2250000  -0.2250000), wk =   0.0392157
        k(   11) = (   0.0000000   0.2500000  -0.2500000), wk =   0.0392157
        k(   12) = (   0.0187500   0.2812500  -0.2250000), wk =   0.0392157
        k(   13) = (   0.0375000   0.3125000  -0.2000000), wk =   0.0392157
        k(   14) = (   0.0562500   0.3437500  -0.1750000), wk =   0.0392157
        k(   15) = (   0.0750000   0.3750000  -0.1500000), wk =   0.0392157
        k(   16) = (   0.0937500   0.4062500  -0.1250000), wk =   0.0392157
        k(   17) = (   0.1125000   0.4375000  -0.1000000), wk =   0.0392157
        k(   18) = (   0.1312500   0.4687500  -0.0750000), wk =   0.0392157
        k(   19) = (   0.1500000   0.5000000  -0.0500000), wk =   0.0392157
        k(   20) = (   0.1687500   0.5312500  -0.0250000), wk =   0.0392157
        k(   21) = (   0.1875000   0.5625000   0.0000000), wk =   0.0392157
        k(   22) = (   0.1687500   0.5062500   0.0000000), wk =   0.0392157
        k(   23) = (   0.1500000   0.4500000   0.0000000), wk =   0.0392157
        k(   24) = (   0.1312500   0.3937500   0.0000000), wk =   0.0392157
        k(   25) = (   0.1125000   0.3375000   0.0000000), wk =   0.0392157
        k(   26) = (   0.0937500   0.2812500   0.0000000), wk =   0.0392157
        k(   27) = (   0.0750000   0.2250000   0.0000000), wk =   0.0392157
        k(   28) = (   0.0562500   0.1687500   0.0000000), wk =   0.0392157
        k(   29) = (   0.0375000   0.1125000   0.0000000), wk =   0.0392157
        k(   30) = (   0.0187500   0.0562500   0.0000000), wk =   0.0392157
        k(   31) = (   0.0000000   0.0000000   0.0000000), wk =   0.0392157
        k(   32) = (   0.0000000   0.0500000   0.0000000), wk =   0.0392157
        k(   33) = (   0.0000000   0.1000000   0.0000000), wk =   0.0392157
        k(   34) = (   0.0000000   0.1500000   0.0000000), wk =   0.0392157
        k(   35) = (   0.0000000   0.2000000   0.0000000), wk =   0.0392157
        k(   36) = (   0.0000000   0.2500000   0.0000000), wk =   0.0392157
        k(   37) = (   0.0000000   0.3000000   0.0000000), wk =   0.0392157
        k(   38) = (   0.0000000   0.3500000   0.0000000), wk =   0.0392157
        k(   39) = (   0.0000000   0.4000000   0.0000000), wk =   0.0392157
        k(   40) = (   0.0000000   0.4500000   0.0000000), wk =   0.0392157
        k(   41) = (   0.0000000   0.5000000   0.0000000), wk =   0.0392157
        k(   42) = (   0.0000000   0.4750000   0.0000000), wk =   0.0392157
        k(   43) = (   0.0000000   0.4500000   0.0000000), wk =   0.0392157
        k(   44) = (   0.0000000   0.4250000   0.0000000), wk =   0.0392157
        k(   45) = (   0.0000000   0.4000000   0.0000000), wk =   0.0392157
        k(   46) = (   0.0000000   0.3750000   0.0000000), wk =   0.0392157
        k(   47) = (   0.0000000   0.3500000   0.0000000), wk =   0.0392157
        k(   48) = (   0.0000000   0.3250000   0.0000000), wk =   0.0392157
        k(   49) = (   0.0000000   0.3000000   0.0000000), wk =   0.0392157
        k(   50) = (   0.0000000   0.2750000   0.0000000), wk =   0.0392157
        k(   51) = (   0.0000000   0.2500000   0.0000000), wk =   0.0392157

     Dense  grid:     3647 G-vectors     FFT dimensions: (  24,  24,  24)

     Dynamical RAM for                 wfc:       0.05 MB

     Dynamical RAM for     wfc (w. buffer):       0.05 MB

     Dynamical RAM for           str. fact:       0.03 MB

     Dynamical RAM for           local pot:       0.00 MB

     Dynamical RAM for          nlocal pot:       0.09 MB

     Dynamical RAM for                qrad:       0.32 MB

     Dynamical RAM for          rho,v,vnew:       0.24 MB

     Dynamical RAM for           G-vectors:       0.12 MB

     Dynamical RAM for          h,s,v(r/c):       0.01 MB

     Dynamical RAM for          <psi|beta>:       0.00 MB

     Dynamical RAM for                 psi:       0.09 MB

     Dynamical RAM for                hpsi:       0.09 MB

     Dynamical RAM for      wfcinit/wfcrot:       0.09 MB

     Estimated static dynamical RAM per process >       1.17 MB

     Estimated max dynamical RAM per process >       1.36 MB

     Estimated total dynamical RAM >       2.73 MB

     The potential is recalculated from file :
     ./diamond.save/charge-density

     Starting wfcs are random

     Band Structure Calculation
     Davidson diagonalization with overlap

     Computing kpt #:     1  of    51
     total cpu time spent up to now is        0.3 secs

     Computing kpt #:     2  of    51
     total cpu time spent up to now is        0.3 secs

     Computing kpt #:     3  of    51
     total cpu time spent up to now is        0.4 secs

     Computing kpt #:     4  of    51
     total cpu time spent up to now is        0.4 secs

     Computing kpt #:     5  of    51
     total cpu time spent up to now is        0.4 secs

     Computing kpt #:     6  of    51
     total cpu time spent up to now is        0.4 secs

     Computing kpt #:     7  of    51
     total cpu time spent up to now is        0.4 secs

     Computing kpt #:     8  of    51
     total cpu time spent up to now is        0.5 secs

     Computing kpt #:     9  of    51
     total cpu time spent up to now is        0.5 secs

     Computing kpt #:    10  of    51
     total cpu time spent up to now is        0.5 secs

     Computing kpt #:    11  of    51
     total cpu time spent up to now is        0.5 secs

     Computing kpt #:    12  of    51
     total cpu time spent up to now is        0.6 secs

     Computing kpt #:    13  of    51
     total cpu time spent up to now is        0.6 secs

     Computing kpt #:    14  of    51
     total cpu time spent up to now is        0.6 secs

     Computing kpt #:    15  of    51
     total cpu time spent up to now is        0.6 secs

     Computing kpt #:    16  of    51
     total cpu time spent up to now is        0.7 secs

     Computing kpt #:    17  of    51
     total cpu time spent up to now is        0.7 secs

     Computing kpt #:    18  of    51
     total cpu time spent up to now is        0.7 secs

     Computing kpt #:    19  of    51
     total cpu time spent up to now is        0.8 secs

     Computing kpt #:    20  of    51
     total cpu time spent up to now is        0.8 secs

     Computing kpt #:    21  of    51
     total cpu time spent up to now is        0.8 secs

     Computing kpt #:    22  of    51
     total cpu time spent up to now is        0.8 secs

     Computing kpt #:    23  of    51
     total cpu time spent up to now is        0.9 secs

     Computing kpt #:    24  of    51
     total cpu time spent up to now is        0.9 secs

     Computing kpt #:    25  of    51
     total cpu time spent up to now is        0.9 secs

     Computing kpt #:    26  of    51
     total cpu time spent up to now is        0.9 secs

     Computing kpt #:    27  of    51
     total cpu time spent up to now is        1.0 secs

     Computing kpt #:    28  of    51
     total cpu time spent up to now is        1.0 secs

     Computing kpt #:    29  of    51
     total cpu time spent up to now is        1.0 secs

     Computing kpt #:    30  of    51
     total cpu time spent up to now is        1.0 secs

     Computing kpt #:    31  of    51
     total cpu time spent up to now is        1.0 secs

     Computing kpt #:    32  of    51
     total cpu time spent up to now is        1.1 secs

     Computing kpt #:    33  of    51
     total cpu time spent up to now is        1.1 secs

     Computing kpt #:    34  of    51
     total cpu time spent up to now is        1.1 secs

     Computing kpt #:    35  of    51
     total cpu time spent up to now is        1.1 secs

     Computing kpt #:    36  of    51
     total cpu time spent up to now is        1.2 secs

     Computing kpt #:    37  of    51
     total cpu time spent up to now is        1.2 secs

     Computing kpt #:    38  of    51
     total cpu time spent up to now is        1.2 secs

     Computing kpt #:    39  of    51
     total cpu time spent up to now is        1.2 secs

     Computing kpt #:    40  of    51
     total cpu time spent up to now is        1.2 secs

     Computing kpt #:    41  of    51
     total cpu time spent up to now is        1.3 secs

     Computing kpt #:    42  of    51
     total cpu time spent up to now is        1.3 secs

     Computing kpt #:    43  of    51
     total cpu time spent up to now is        1.3 secs

     Computing kpt #:    44  of    51
     total cpu time spent up to now is        1.3 secs

     Computing kpt #:    45  of    51
     total cpu time spent up to now is        1.4 secs

     Computing kpt #:    46  of    51
     total cpu time spent up to now is        1.4 secs

     Computing kpt #:    47  of    51
     total cpu time spent up to now is        1.4 secs

     Computing kpt #:    48  of    51
     total cpu time spent up to now is        1.4 secs

     Computing kpt #:    49  of    51
     total cpu time spent up to now is        1.5 secs

     Computing kpt #:    50  of    51
     total cpu time spent up to now is        1.5 secs

     Computing kpt #:    51  of    51
     total cpu time spent up to now is        1.5 secs

     ethr =  1.25E-10,  avg # of iterations = 25.4

     total cpu time spent up to now is        1.5 secs

     End of band structure calculation

          k = 0.0000 0.0000 0.0000 (   725 PWs)   bands (ev):

    -8.0541  13.5744  13.5744  13.5744  19.2147  19.2147  19.2147  27.2517

     occupation numbers 
     1.0000   1.0000   1.0000   1.0000   0.0000   0.0000   0.0000   0.0000

          k = 0.0500 0.0000 0.0500 (   737 PWs)   bands (ev):

    -8.0076  13.2988  13.3769  13.5458  19.2612  19.3678  19.4435  27.2871

     occupation numbers 
     1.0000   1.0000   1.0000   1.0000   0.0000   0.0000   0.0000   0.0000

          k = 0.1000 0.0000 0.1000 (   737 PWs)   bands (ev):

    -7.8680  12.5928  12.8439  13.4586  19.4032  19.7778  20.0059  27.3829

     occupation numbers 
     1.0000   1.0000   1.0000   1.0000   0.0000   0.0000   0.0000   0.0000

          k = 0.1500 0.0000 0.1500 (   741 PWs)   bands (ev):

    -7.6357  11.6570  12.0914  13.3093  19.6389  20.3476  20.6848  27.5063

     occupation numbers 
     1.0000   1.0000   1.0000   1.0000   0.0000   0.0000   0.0000   0.0000

          k = 0.2000 0.0000 0.2000 (   747 PWs)   bands (ev):

    -7.3115  10.6243  11.2165  13.0932  19.9667  21.0096  21.3289  27.6051

     occupation numbers 
     1.0000   1.0000   1.0000   1.0000   0.0000   0.0000   0.0000   0.0000

          k = 0.2500 0.0000 0.2500 (   753 PWs)   bands (ev):

    -6.8963   9.5663  10.2841  12.8075  20.3844  21.7320  21.8512  27.6279

     occupation numbers 
     1.0000   1.0000   1.0000   1.0000   0.0000   0.0000   0.0000   0.0000

          k = 0.3000 0.0000 0.3000 (   749 PWs)   bands (ev):

    -6.3917   8.5223   9.3369  12.4530  20.8895  22.2005  22.5041  27.5678

     occupation numbers 
     1.0000   1.0000   1.0000   1.0000   0.0000   0.0000   0.0000   0.0000

          k = 0.3500 0.0000 0.3500 (   748 PWs)   bands (ev):

    -5.8000   7.5141   8.4036  12.0348  21.4775  22.3443  23.3256  27.4807

     occupation numbers 
     1.0000   1.0000   1.0000   1.0000   0.0000   0.0000   0.0000   0.0000

          k = 0.4000 0.0000 0.4000 (   746 PWs)   bands (ev):

    -5.1243   6.5560   7.5057  11.5632  22.1438  22.2723  24.1979  27.4486

     occupation numbers 
     1.0000   1.0000   1.0000   1.0000   0.0000   0.0000   0.0000   0.0000

          k = 0.4500 0.0000 0.4500 (   746 PWs)   bands (ev):

    -4.3698   5.6574   6.6607  11.0539  22.0088  22.8805  25.1215  27.5214

     occupation numbers 
     1.0000   1.0000   1.0000   1.0000   0.0000   0.0000   0.0000   0.0000

          k = 0.5000 0.0000 0.5000 (   754 PWs)   bands (ev):

    -3.5443   4.8248   5.8842  10.5235  21.6098  23.6789  26.0871  27.7018

     occupation numbers 
     1.0000   1.0000   1.0000   1.0000   0.0000   0.0000   0.0000   0.0000

          k = 0.4875 0.0375 0.5250 (   751 PWs)   bands (ev):

    -3.4191   4.4970   6.0326  10.4293  21.5999  23.6988  26.1409  27.7765

     occupation numbers 
     1.0000   1.0000   1.0000   1.0000   0.0000   0.0000   0.0000   0.0000

          k = 0.4750 0.0750 0.5500 (   751 PWs)   bands (ev):

    -3.2585   3.9638   6.4114  10.2837  21.6777  23.5568  26.0951  27.9094

     occupation numbers 
     1.0000   1.0000   1.0000   1.0000   0.0000   0.0000   0.0000   0.0000

          k = 0.4625 0.1125 0.5750 (   753 PWs)   bands (ev):

    -3.0640   3.4008   6.8420  10.0956  21.8262  23.2846  26.0318  28.0305

     occupation numbers 
     1.0000   1.0000   1.0000   1.0000   0.0000   0.0000   0.0000   0.0000

          k = 0.4500 0.1500 0.6000 (   751 PWs)   bands (ev):

    -2.8382   2.8512   7.2727   9.8795  21.9878  22.9781  25.9883  28.1073

     occupation numbers 
     1.0000   1.0000   1.0000   1.0000   0.0000   0.0000   0.0000   0.0000

          k = 0.4375 0.1875 0.6250 (   744 PWs)   bands (ev):

    -2.5850   2.3323   7.6690   9.6573  21.9686  22.8786  25.9552  28.1477

     occupation numbers 
     1.0000   1.0000   1.0000   1.0000   0.0000   0.0000   0.0000   0.0000

          k = 0.4250 0.2250 0.6500 (   741 PWs)   bands (ev):

    -2.3114   1.8565   7.9828   9.4683  21.6760  23.1182  25.9052  28.1809

     occupation numbers 
     1.0000   1.0000   1.0000   1.0000   0.0000   0.0000   0.0000   0.0000

          k = 0.4125 0.2625 0.6750 (   743 PWs)   bands (ev):

    -2.0295   1.4392   8.1384   9.3780  21.3301  23.5045  25.8131  28.2382

     occupation numbers 
     1.0000   1.0000   1.0000   1.0000   0.0000   0.0000   0.0000   0.0000

          k = 0.4000 0.3000 0.7000 (   747 PWs)   bands (ev):

    -1.7616   1.1041   8.0897   9.4208  21.0456  23.9335  25.6730  28.3420

     occupation numbers 
     1.0000   1.0000   1.0000   1.0000   0.0000   0.0000   0.0000   0.0000

          k = 0.3875 0.3375 0.7250 (   748 PWs)   bands (ev):

    -1.5464   0.8905   7.9015   9.5208  20.8707  24.3299  25.5237  28.4954

     occupation numbers 
     1.0000   1.0000   1.0000   1.0000   0.0000   0.0000   0.0000   0.0000

          k = 0.3750 0.3750 0.7500 (   745 PWs)   bands (ev):

    -1.4349   0.8490   7.6547   9.5884  20.8313  24.5267  25.5200  28.6786

     occupation numbers 
     1.0000   1.0000   1.0000   1.0000   0.0000   0.0000   0.0000   0.0000

          k = 0.3375 0.3375 0.6750 (   752 PWs)   bands (ev):

    -2.1215   1.3469   8.4544   9.5521  20.7666  24.4185  25.0599  28.0717

     occupation numbers 
     1.0000   1.0000   1.0000   1.0000   0.0000   0.0000   0.0000   0.0000

          k = 0.3000 0.3000 0.6000 (   749 PWs)   bands (ev):

    -3.2196   2.5058   9.2753   9.6534  20.7417  24.2131  24.5614  27.5424

     occupation numbers 
     1.0000   1.0000   1.0000   1.0000   0.0000   0.0000   0.0000   0.0000

          k = 0.2625 0.2625 0.5250 (   746 PWs)   bands (ev):

    -4.2983   3.8944   9.8943  10.0878  20.6953  23.8994  24.0200  27.2462

     occupation numbers 
     1.0000   1.0000   1.0000   1.0000   0.0000   0.0000   0.0000   0.0000

          k = 0.2250 0.2250 0.4500 (   746 PWs)   bands (ev):

    -5.2703   5.4166  10.2722  10.8657  20.5688  23.4279  23.4461  27.2303

     occupation numbers 
     1.0000   1.0000   1.0000   1.0000   0.0000   0.0000   0.0000   0.0000

          k = 0.1875 0.1875 0.3750 (   751 PWs)   bands (ev):

    -6.1094   7.0282  10.7783  11.5857  20.3438  22.7739  22.8219  27.4123

     occupation numbers 
     1.0000   1.0000   1.0000   1.0000   0.0000   0.0000   0.0000   0.0000

          k = 0.1500 0.1500 0.3000 (   747 PWs)   bands (ev):

    -6.8043   8.6866  11.3940  12.2295  20.0506  22.0291  22.0437  27.5897

     occupation numbers 
     1.0000   1.0000   1.0000   1.0000   0.0000   0.0000   0.0000   0.0000

          k = 0.1125 0.1125 0.2250 (   747 PWs)   bands (ev):

    -7.3490  10.3325  12.0834  12.7769  19.7413  21.1218  21.2280  27.5938

     occupation numbers 
     1.0000   1.0000   1.0000   1.0000   0.0000   0.0000   0.0000   0.0000

          k = 0.0750 0.0750 0.1500 (   737 PWs)   bands (ev):

    -7.7401  11.8638  12.7777  13.2034  19.4694  20.2168  20.3560  27.4564

     occupation numbers 
     1.0000   1.0000   1.0000   1.0000   0.0000   0.0000   0.0000   0.0000

          k = 0.0375 0.0375 0.0750 (   735 PWs)   bands (ev):

    -7.9755  13.0744  13.3436  13.4786  19.2814  19.4995  19.5684  27.3105

     occupation numbers 
     1.0000   1.0000   1.0000   1.0000   0.0000   0.0000   0.0000   0.0000

          k = 0.0000 0.0000 0.0000 (   725 PWs)   bands (ev):

    -8.0541  13.5744  13.5744  13.5744  19.2147  19.2147  19.2147  27.2517

     occupation numbers 
     1.0000   1.0000   1.0000   1.0000   0.0000   0.0000   0.0000   0.0000

          k = 0.0500 0.0500 0.0500 (   737 PWs)   bands (ev):

    -7.9843  13.0865  13.4491  13.4491  19.3772  19.3772  19.5187  27.3060

     occupation numbers 
     1.0000   1.0000   1.0000   1.0000   0.0000   0.0000   0.0000   0.0000

          k = 0.1000 0.1000 0.1000 (   737 PWs)   bands (ev):

    -7.7750  11.8869  13.1219  13.1219  19.8075  19.8075  20.1811  27.4674

     occupation numbers 
     1.0000   1.0000   1.0000   1.0000   0.0000   0.0000   0.0000   0.0000

          k = 0.1500 0.1500 0.1500 (   743 PWs)   bands (ev):

    -7.4272  10.3425  12.6901  12.6901  20.3749  20.3749  20.8697  27.7282

     occupation numbers 
     1.0000   1.0000   1.0000   1.0000   0.0000   0.0000   0.0000   0.0000

          k = 0.2000 0.2000 0.2000 (   751 PWs)   bands (ev):

    -6.9425   8.6570  12.2340  12.2340  20.9511  20.9511  21.4429  28.0656

     occupation numbers 
     1.0000   1.0000   1.0000   1.0000   0.0000   0.0000   0.0000   0.0000

          k = 0.2500 0.2500 0.2500 (   754 PWs)   bands (ev):

    -6.3239   6.9327  11.8053  11.8053  21.4374  21.4374  21.8781  28.4389

     occupation numbers 
     1.0000   1.0000   1.0000   1.0000   0.0000   0.0000   0.0000   0.0000

          k = 0.3000 0.3000 0.3000 (   757 PWs)   bands (ev):

    -5.5761   5.2307  11.4331  11.4331  21.7814  21.7814  22.1913  28.7943

     occupation numbers 
     1.0000   1.0000   1.0000   1.0000   0.0000   0.0000   0.0000   0.0000

          k = 0.3500 0.3500 0.3500 (   751 PWs)   bands (ev):

    -4.7088   3.5946  11.1335  11.1335  21.9816  21.9816  22.4092  29.0807

     occupation numbers 
     1.0000   1.0000   1.0000   1.0000   0.0000   0.0000   0.0000   0.0000

          k = 0.4000 0.4000 0.4000 (   763 PWs)   bands (ev):

    -3.7450   2.0687  10.9143  10.9143  22.0737  22.0737  22.5518  29.2698

     occupation numbers 
     1.0000   1.0000   1.0000   1.0000   0.0000   0.0000   0.0000   0.0000

          k = 0.4500 0.4500 0.4500 (   751 PWs)   bands (ev):

    -2.7660   0.7476  10.7819  10.7819  22.1061  22.1061  22.6331  29.3691

     occupation numbers 
     1.0000   1.0000   1.0000   1.0000   0.0000   0.0000   0.0000   0.0000

          k = 0.5000 0.5000 0.5000 (   754 PWs)   bands (ev):

    -2.1997   0.0665  10.7374  10.7374  22.1124  22.1124  22.6594  29.3971

     occupation numbers 
     1.0000   1.0000   1.0000   1.0000   0.0000   0.0000   0.0000   0.0000

          k = 0.4750 0.4750 0.4750 (   754 PWs)   bands (ev):

    -2.3695   0.2651  10.7485  10.7485  22.1110  22.1110  22.6528  29.3901

     occupation numbers 
     1.0000   1.0000   1.0000   1.0000   0.0000   0.0000   0.0000   0.0000

          k = 0.4500 0.4500 0.4500 (   751 PWs)   bands (ev):

    -2.7660   0.7476  10.7819  10.7819  22.1061  22.1061  22.6331  29.3691

     occupation numbers 
     1.0000   1.0000   1.0000   1.0000   0.0000   0.0000   0.0000   0.0000

          k = 0.4250 0.4250 0.4250 (   757 PWs)   bands (ev):

    -3.2463   1.3708  10.8372  10.8372  22.0948  22.0948  22.5996  29.3300

     occupation numbers 
     1.0000   1.0000   1.0000   1.0000   0.0000   0.0000   0.0000   0.0000

          k = 0.4000 0.4000 0.4000 (   763 PWs)   bands (ev):

    -3.7450   2.0687  10.9143  10.9143  22.0737  22.0737  22.5518  29.2698

     occupation numbers 
     1.0000   1.0000   1.0000   1.0000   0.0000   0.0000   0.0000   0.0000

          k = 0.3750 0.3750 0.3750 (   757 PWs)   bands (ev):

    -4.2364   2.8143  11.0134  11.0134  22.0381  22.0381  22.4888  29.1878

     occupation numbers 
     1.0000   1.0000   1.0000   1.0000   0.0000   0.0000   0.0000   0.0000

          k = 0.3500 0.3500 0.3500 (   751 PWs)   bands (ev):

    -4.7088   3.5946  11.1335  11.1335  21.9816  21.9816  22.4092  29.0807

     occupation numbers 
     1.0000   1.0000   1.0000   1.0000   0.0000   0.0000   0.0000   0.0000

          k = 0.3250 0.3250 0.3250 (   751 PWs)   bands (ev):

    -5.1565   4.4019  11.2736  11.2736  21.8979  21.8979  22.3108  28.9487

     occupation numbers 
     1.0000   1.0000   1.0000   1.0000   0.0000   0.0000   0.0000   0.0000

          k = 0.3000 0.3000 0.3000 (   757 PWs)   bands (ev):

    -5.5761   5.2307  11.4331  11.4331  21.7814  21.7814  22.1913  28.7943

     occupation numbers 
     1.0000   1.0000   1.0000   1.0000   0.0000   0.0000   0.0000   0.0000

          k = 0.2750 0.2750 0.2750 (   757 PWs)   bands (ev):

    -5.9657   6.0759  11.6110  11.6110  21.6284  21.6284  22.0481  28.6222

     occupation numbers 
     1.0000   1.0000   1.0000   1.0000   0.0000   0.0000   0.0000   0.0000

          k = 0.2500 0.2500 0.2500 (   754 PWs)   bands (ev):

    -6.3239   6.9327  11.8053  11.8053  21.4374  21.4374  21.8781  28.4389

     occupation numbers 
     1.0000   1.0000   1.0000   1.0000   0.0000   0.0000   0.0000   0.0000

     highest occupied, lowest unoccupied level (ev):    13.5744   19.2147

     Writing all to output data dir ./diamond.save/ :
     XML data file, pseudopotentials, collected wavefunctions

     init_run     :      0.20s CPU      0.23s WALL (       1 calls)
     electrons    :      1.12s CPU      1.24s WALL (       1 calls)

     Called by init_run:
     wfcinit      :      0.00s CPU      0.00s WALL (       1 calls)
     wfcinit:wfcr :      0.04s CPU      0.05s WALL (      51 calls)
     potinit      :      0.00s CPU      0.00s WALL (       1 calls)
     hinit0       :      0.19s CPU      0.19s WALL (       1 calls)

     Called by electrons:
     c_bands      :      1.12s CPU      1.23s WALL (       1 calls)
     v_of_rho     :      0.00s CPU      0.00s WALL (       1 calls)
     v_h          :      0.00s CPU      0.00s WALL (       1 calls)
     v_xc         :      0.00s CPU      0.00s WALL (       1 calls)

     Called by c_bands:
     init_us_2    :      0.00s CPU      0.00s WALL (      51 calls)
     cegterg      :      1.07s CPU      1.16s WALL (      98 calls)

     Called by sum_band:

     Called by *egterg:
     cdiaghg      :      0.16s CPU      0.18s WALL (    1348 calls)
     cegterg:over :      0.03s CPU      0.04s WALL (    1297 calls)
     cegterg:upda :      0.03s CPU      0.03s WALL (    1297 calls)
     cegterg:last :      0.03s CPU      0.03s WALL (    1074 calls)
     h_psi        :      0.82s CPU      0.89s WALL (    1446 calls)
     g_psi        :      0.01s CPU      0.01s WALL (    1297 calls)

     Called by h_psi:
     h_psi:calbec :      0.03s CPU      0.03s WALL (    1446 calls)
     vloc_psi     :      0.76s CPU      0.83s WALL (    1446 calls)
     add_vuspsi   :      0.02s CPU      0.02s WALL (    1446 calls)

     General routines
     calbec       :      0.02s CPU      0.03s WALL (    1446 calls)
     fft          :      0.18s CPU      0.18s WALL (      10 calls)
     fftw         :      0.65s CPU      0.71s WALL (   18478 calls)
     davcio       :      0.00s CPU      0.00s WALL (     102 calls)

     Parallel routines

     PWSCF        :      1.37s CPU      2.27s WALL


   This run was terminated on:  14:28:59   6Oct2024            

=------------------------------------------------------------------------------=
   JOB DONE.
=------------------------------------------------------------------------------=
