
     Program BANDS v.7.3.1 starts on  6Oct2024 at 14:30:18 

     This program is part of the open-source Quantum ESPRESSO suite
     for quantum simulation of materials; please cite
         "P. Giannozzi et al., J. Phys.:Condens. Matter 21 395502 (2009);
         "P. Giannozzi et al., J. Phys.:Condens. Matter 29 465901 (2017);
         "P. Giannozzi et al., J. Chem. Phys. 152 154105 (2020);
          URL http://www.quantum-espresso.org", 
     in publications or presentations arising from this work. More details at
     http://www.quantum-espresso.org/quote

     Parallel version (MPI & OpenMP), running on       2 processor cores
     Number of MPI processes:                 2
     Threads/MPI process:                     1

     MPI processes distributed on     1 nodes
     R & G space division:  proc/nbgrp/npool/nimage =       2
     478271 MiB available memory on the printing compute node when the environment starts


     Reading xml data from directory:

     ./diamond.save/

     IMPORTANT: XC functional enforced from input :
     Exchange-correlation= PBE
                           (   1   4   3   4   0   0   0)
     Any further DFT definition will be discarded
     Please, verify this is what you really want


     Parallelization info
     --------------------
     sticks:   dense  smooth     PW     G-vecs:    dense   smooth      PW
     Min         156     156     69                 1859     1859     518
     Max         157     157     70                 1860     1860     519
     Sum         313     313    139                 3719     3719    1037

     Using Slab Decomposition

     Reading collected, re-writing distributed wavefunctions
     high-symmetry point:  0.0000 0.0000 0.0000   x coordinate   0.0000
     high-symmetry point:  0.5000 0.0000 0.5000   x coordinate   0.7071
     high-symmetry point:  0.3750 0.3750 0.7500   x coordinate   1.1748
     high-symmetry point:  0.0000 0.0000 0.0000   x coordinate   2.0934
     high-symmetry point:  0.5000 0.5000 0.5000   x coordinate   2.9594
     high-symmetry point:  0.2500 0.2500 0.2500   x coordinate   3.3924

     Plottable bands (eV) written to file bands.dat.gnu
     Bands written to file bands.dat

 **************************************************************************

                    xk=(   0.00000,   0.00000,   0.00000  )

     point group O_h (m-3m) 
     there are 10 classes
     the character table:

       E     8C3   3C2   6C4   6C2'  i     8S6   3s_h  6S4   6s_d 
A_1g   1.00  1.00  1.00  1.00  1.00  1.00  1.00  1.00  1.00  1.00
A_2g   1.00  1.00  1.00 -1.00 -1.00  1.00  1.00  1.00 -1.00 -1.00
E_g    2.00 -1.00  2.00  0.00  0.00  2.00 -1.00  2.00  0.00  0.00
T_1g   3.00  0.00 -1.00  1.00 -1.00  3.00  0.00 -1.00  1.00 -1.00
T_2g   3.00  0.00 -1.00 -1.00  1.00  3.00  0.00 -1.00 -1.00  1.00
A_1u   1.00  1.00  1.00  1.00  1.00 -1.00 -1.00 -1.00 -1.00 -1.00
A_2u   1.00  1.00  1.00 -1.00 -1.00 -1.00 -1.00 -1.00  1.00  1.00
E_u    2.00 -1.00  2.00  0.00  0.00 -2.00  1.00 -2.00  0.00  0.00
T_1u   3.00  0.00 -1.00  1.00 -1.00 -3.00  0.00  1.00 -1.00  1.00
T_2u   3.00  0.00 -1.00 -1.00  1.00 -3.00  0.00  1.00  1.00 -1.00

     the symmetry operations in each class and the name of the first element:

     E        1
                                                                 
     8C3     17   19   20   18   24   21   22   23
                                                                 
     3C2      2    4    3
                                                                 
     6C4      7    8   15   16   12   11
                                                                 
     6C2'     5    6   14   13   10    9
                                                                 
     i       25
                                                                 
     8S6     41   43   44   42   48   45   46   47
                                                                 
     3s_h    26   28   27
                                                                 
     6S4     31   32   39   40   36   35
                                                                 
     6s_d    29   30   38   37   34   33
                                                                 

     Band symmetry, O_h (m-3m)  point group:

     e(  1 -  1) =     -8.24598  eV     1   --> A_1g G_1   G_1+
     e(  2 -  4) =     12.82949  eV     3   --> T_2g G_25' G_5+
     e(  5 -  7) =     18.35168  eV     3   --> T_1u G_15  G_4-
     e(  8 -  8) =     25.55234  eV     1   --> A_2u G_2'  G_2-

 **************************************************************************

 **************************************************************************

                    xk=(   0.05000,   0.00000,   0.05000  )

     point group C_2v (mm2) 
     there are  4 classes
     the character table:

       E     C2    s_v   s_v' 
A_1    1.00  1.00  1.00  1.00
A_2    1.00  1.00 -1.00 -1.00
B_1    1.00 -1.00  1.00 -1.00
B_2    1.00 -1.00 -1.00  1.00

     the symmetry operations in each class and the name of the first element:

     E        1
                                                                 
     C2       2
                                                                 
     s_v      3
                                                                 
     s_v'     4
                                                                 

     Band symmetry, C_2v (mm2)  point group:

     e(  1 -  1) =     -8.20073  eV     1   --> A_1  D_1  S_1  
     e(  2 -  2) =     12.56122  eV     1   --> B_2  D_4  S_4  
     e(  3 -  3) =     12.64169  eV     1   --> A_1  D_1  S_1  
     e(  4 -  4) =     12.80160  eV     1   --> A_2  D_2  S_2  
     e(  5 -  5) =     18.39721  eV     1   --> B_1  D_3  S_3  
     e(  6 -  6) =     18.49497  eV     1   --> A_1  D_1  S_1  
     e(  7 -  7) =     18.56958  eV     1   --> B_2  D_4  S_4  
     e(  8 -  8) =     25.59508  eV     1   --> B_2  D_4  S_4  

 **************************************************************************

 **************************************************************************

                    xk=(   0.10000,   0.00000,   0.10000  )

     Band symmetry, C_2v (mm2)  point group:

     e(  1 -  1) =     -8.06507  eV     1   --> A_1  D_1  S_1  
     e(  2 -  2) =     11.87332  eV     1   --> B_2  D_4  S_4  
     e(  3 -  3) =     12.13311  eV     1   --> A_1  D_1  S_1  
     e(  4 -  4) =     12.71669  eV     1   --> A_2  D_2  S_2  
     e(  5 -  5) =     18.53380  eV     1   --> B_1  D_3  S_3  
     e(  6 -  6) =     18.88012  eV     1   --> A_1  D_1  S_1  
     e(  7 -  7) =     19.10166  eV     1   --> B_2  D_4  S_4  
     e(  8 -  8) =     25.71438  eV     1   --> B_2  D_4  S_4  

 **************************************************************************

 **************************************************************************

                    xk=(   0.15000,   0.00000,   0.15000  )

     Band symmetry, C_2v (mm2)  point group:

     e(  1 -  1) =     -7.83939  eV     1   --> A_1  D_1  S_1  
     e(  2 -  2) =     10.96161  eV     1   --> B_2  D_4  S_4  
     e(  3 -  3) =     11.41255  eV     1   --> A_1  D_1  S_1  
     e(  4 -  4) =     12.57202  eV     1   --> A_2  D_2  S_2  
     e(  5 -  5) =     18.76089  eV     1   --> B_1  D_3  S_3  
     e(  6 -  6) =     19.41830  eV     1   --> A_1  D_1  S_1  
     e(  7 -  7) =     19.74029  eV     1   --> B_2  D_4  S_4  
     e(  8 -  8) =     25.88052  eV     1   --> B_2  D_4  S_4  

 **************************************************************************

 **************************************************************************

                    xk=(   0.20000,   0.00000,   0.20000  )

     Band symmetry, C_2v (mm2)  point group:

     e(  1 -  1) =     -7.52441  eV     1   --> A_1  D_1  S_1  
     e(  2 -  2) =      9.95408  eV     1   --> B_2  D_4  S_4  
     e(  3 -  3) =     10.57145  eV     1   --> A_1  D_1  S_1  
     e(  4 -  4) =     12.36328  eV     1   --> A_2  D_2  S_2  
     e(  5 -  5) =     19.07669  eV     1   --> B_1  D_3  S_3  
     e(  6 -  6) =     20.04587  eV     1   --> A_1  D_1  S_1  
     e(  7 -  7) =     20.34126  eV     1   --> B_2  D_4  S_4  
     e(  8 -  8) =     26.04186  eV     1   --> B_2  D_4  S_4  

 **************************************************************************

 **************************************************************************

                    xk=(   0.25000,   0.00000,   0.25000  )

     Band symmetry, C_2v (mm2)  point group:

     e(  1 -  1) =     -7.12120  eV     1   --> A_1  D_1  S_1  
     e(  2 -  2) =      8.92113  eV     1   --> B_2  D_4  S_4  
     e(  3 -  3) =      9.67316  eV     1   --> A_1  D_1  S_1  
     e(  4 -  4) =     12.08846  eV     1   --> A_2  D_2  S_2  
     e(  5 -  5) =     19.47961  eV     1   --> B_1  D_3  S_3  
     e(  6 -  6) =     20.73353  eV     1   --> A_1  D_1  S_1  
     e(  7 -  7) =     20.82669  eV     1   --> B_2  D_4  S_4  
     e(  8 -  8) =     26.14107  eV     1   --> B_2  D_4  S_4  

 **************************************************************************

 **************************************************************************

                    xk=(   0.30000,   0.00000,   0.30000  )

     Band symmetry, C_2v (mm2)  point group:

     e(  1 -  1) =     -6.63139  eV     1   --> A_1  D_1  S_1  
     e(  2 -  2) =      7.90032  eV     1   --> B_2  D_4  S_4  
     e(  3 -  3) =      8.75842  eV     1   --> A_1  D_1  S_1  
     e(  4 -  4) =     11.74667  eV     1   --> A_2  D_2  S_2  
     e(  5 -  5) =     19.96488  eV     1   --> B_1  D_3  S_3  
     e(  6 -  6) =     21.15199  eV     1   --> B_2  D_4  S_4  
     e(  7 -  7) =     21.47051  eV     1   --> A_1  D_1  S_1  
     e(  8 -  8) =     26.15326  eV     1   --> B_2  D_4  S_4  

 **************************************************************************

 **************************************************************************

                    xk=(   0.35000,   0.00000,   0.35000  )

     Band symmetry, C_2v (mm2)  point group:

     e(  1 -  1) =     -6.05731  eV     1   --> A_1  D_1  S_1  
     e(  2 -  2) =      6.91419  eV     1   --> B_2  D_4  S_4  
     e(  3 -  3) =      7.85640  eV     1   --> A_1  D_1  S_1  
     e(  4 -  4) =     11.34522  eV     1   --> A_2  D_2  S_2  
     e(  5 -  5) =     20.53033  eV     1   --> B_1  D_3  S_3  
     e(  6 -  6) =     21.29329  eV     1   --> B_2  D_4  S_4  
     e(  7 -  7) =     22.25685  eV     1   --> A_1  D_1  S_1  
     e(  8 -  8) =     26.11537  eV     1   --> B_2  D_4  S_4  

 **************************************************************************

 **************************************************************************

                    xk=(   0.40000,   0.00000,   0.40000  )

     Band symmetry, C_2v (mm2)  point group:

     e(  1 -  1) =     -5.40242  eV     1   --> A_1  D_1  S_1  
     e(  2 -  2) =      5.97684  eV     1   --> B_2  D_4  S_4  
     e(  3 -  3) =      6.98864  eV     1   --> A_1  D_1  S_1  
     e(  4 -  4) =     10.89316  eV     1   --> A_2  D_2  S_2  
     e(  5 -  5) =     21.17005  eV     1   --> B_1  D_3  S_3  
     e(  6 -  6) =     21.23952  eV     1   --> B_2  D_4  S_4  
     e(  7 -  7) =     23.09321  eV     1   --> A_1  D_1  S_1  
     e(  8 -  8) =     26.10263  eV     1   --> B_2  D_4  S_4  

 **************************************************************************

 **************************************************************************

                    xk=(   0.45000,   0.00000,   0.45000  )

     Band symmetry, C_2v (mm2)  point group:

     e(  1 -  1) =     -4.67191  eV     1   --> A_1  D_1  S_1  
     e(  2 -  2) =      5.09758  eV     1   --> B_2  D_4  S_4  
     e(  3 -  3) =      6.17248  eV     1   --> A_1  D_1  S_1  
     e(  4 -  4) =     10.40476  eV     1   --> A_2  D_2  S_2  
     e(  5 -  5) =     21.00745  eV     1   --> B_2  D_4  S_4  
     e(  6 -  6) =     21.87761  eV     1   --> B_1  D_3  S_3  
     e(  7 -  7) =     23.97734  eV     1   --> A_1  D_1  S_1  
     e(  8 -  8) =     26.17325  eV     1   --> B_2  D_4  S_4  

 **************************************************************************

 **************************************************************************

                    xk=(   0.50000,   0.00000,   0.50000  )

     Band symmetry, C_2v (mm2)  point group:

     e(  1 -  1) =     -3.87397  eV     1   --> A_1  D_1  S_1  
     e(  2 -  2) =      4.28267  eV     1   --> B_2  D_4  S_4  
     e(  3 -  3) =      5.42388  eV     1   --> A_1  D_1  S_1  
     e(  4 -  4) =      9.89625  eV     1   --> A_2  D_2  S_2  
     e(  5 -  5) =     20.64251  eV     1   --> B_2  D_4  S_4  
     e(  6 -  6) =     22.64404  eV     1   --> B_1  D_3  S_3  
     e(  7 -  7) =     24.89808  eV     1   --> A_1  D_1  S_1  
     e(  8 -  8) =     26.34208  eV     1   --> B_2  D_4  S_4  

 **************************************************************************

 **************************************************************************

                    xk=(   0.48750,   0.03750,   0.52500  )

     point group C_1 (1)    
     there are  1 classes
     the character table:

       E    
A      1.00

     the symmetry operations in each class and the name of the first element:

     E        1
                                                                 

     Band symmetry, C_1 (1)     point group:

     e(  1 -  1) =     -3.75321  eV     1   --> A              
     e(  2 -  2) =      3.98045  eV     1   --> A              
     e(  3 -  3) =      5.55206  eV     1   --> A              
     e(  4 -  4) =      9.80573  eV     1   --> A              
     e(  5 -  5) =     20.63597  eV     1   --> A              
     e(  6 -  6) =     22.66284  eV     1   --> A              
     e(  7 -  7) =     24.93341  eV     1   --> A              
     e(  8 -  8) =     26.43379  eV     1   --> A              

 **************************************************************************

 **************************************************************************

                    xk=(   0.47500,   0.07500,   0.55000  )

     Band symmetry, C_1 (1)     point group:

     e(  1 -  1) =     -3.59869  eV     1   --> A              
     e(  2 -  2) =      3.47813  eV     1   --> A              
     e(  3 -  3) =      5.90484  eV     1   --> A              
     e(  4 -  4) =      9.66565  eV     1   --> A              
     e(  5 -  5) =     20.71635  eV     1   --> A              
     e(  6 -  6) =     22.52273  eV     1   --> A              
     e(  7 -  7) =     24.86094  eV     1   --> A              
     e(  8 -  8) =     26.60379  eV     1   --> A              

 **************************************************************************

 **************************************************************************

                    xk=(   0.46250,   0.11250,   0.57500  )

     Band symmetry, C_1 (1)     point group:

     e(  1 -  1) =     -3.41207  eV     1   --> A              
     e(  2 -  2) =      2.94048  eV     1   --> A              
     e(  3 -  3) =      6.31468  eV     1   --> A              
     e(  4 -  4) =      9.48487  eV     1   --> A              
     e(  5 -  5) =     20.87109  eV     1   --> A              
     e(  6 -  6) =     22.24807  eV     1   --> A              
     e(  7 -  7) =     24.78049  eV     1   --> A              
     e(  8 -  8) =     26.76151  eV     1   --> A              

 **************************************************************************

 **************************************************************************

                    xk=(   0.45000,   0.15000,   0.60000  )

     Band symmetry, C_1 (1)     point group:

     e(  1 -  1) =     -3.19605  eV     1   --> A              
     e(  2 -  2) =      2.41370  eV     1   --> A              
     e(  3 -  3) =      6.72721  eV     1   --> A              
     e(  4 -  4) =      9.27707  eV     1   --> A              
     e(  5 -  5) =     21.05444  eV     1   --> A              
     e(  6 -  6) =     21.92059  eV     1   --> A              
     e(  7 -  7) =     24.72941  eV     1   --> A              
     e(  8 -  8) =     26.86905  eV     1   --> A              

 **************************************************************************

 **************************************************************************

                    xk=(   0.43750,   0.18750,   0.62500  )

     Band symmetry, C_1 (1)     point group:

     e(  1 -  1) =     -2.95490  eV     1   --> A              
     e(  2 -  2) =      1.91641  eV     1   --> A              
     e(  3 -  3) =      7.10686  eV     1   --> A              
     e(  4 -  4) =      9.06420  eV     1   --> A              
     e(  5 -  5) =     21.06349  eV     1   --> A              
     e(  6 -  6) =     21.79104  eV     1   --> A              
     e(  7 -  7) =     24.69370  eV     1   --> A              
     e(  8 -  8) =     26.93349  eV     1   --> A              

 **************************************************************************

 **************************************************************************

                    xk=(   0.42500,   0.22500,   0.65000  )

     Band symmetry, C_1 (1)     point group:

     e(  1 -  1) =     -2.69581  eV     1   --> A              
     e(  2 -  2) =      1.46214  eV     1   --> A              
     e(  3 -  3) =      7.40628  eV     1   --> A              
     e(  4 -  4) =      8.88469  eV     1   --> A              
     e(  5 -  5) =     20.76189  eV     1   --> A              
     e(  6 -  6) =     22.03681  eV     1   --> A              
     e(  7 -  7) =     24.64394  eV     1   --> A              
     e(  8 -  8) =     26.98284  eV     1   --> A              

 **************************************************************************

 **************************************************************************

                    xk=(   0.41250,   0.26250,   0.67500  )

     Band symmetry, C_1 (1)     point group:

     e(  1 -  1) =     -2.43115  eV     1   --> A              
     e(  2 -  2) =      1.06649  eV     1   --> A              
     e(  3 -  3) =      7.55384  eV     1   --> A              
     e(  4 -  4) =      8.80005  eV     1   --> A              
     e(  5 -  5) =     20.41270  eV     1   --> A              
     e(  6 -  6) =     22.42333  eV     1   --> A              
     e(  7 -  7) =     24.55409  eV     1   --> A              
     e(  8 -  8) =     27.04890  eV     1   --> A              

 **************************************************************************

 **************************************************************************

                    xk=(   0.40000,   0.30000,   0.70000  )

     Band symmetry, C_1 (1)     point group:

     e(  1 -  1) =     -2.18254  eV     1   --> A              
     e(  2 -  2) =      0.75274  eV     1   --> A              
     e(  3 -  3) =      7.50808  eV     1   --> A              
     e(  4 -  4) =      8.84054  eV     1   --> A              
     e(  5 -  5) =     20.12975  eV     1   --> A              
     e(  6 -  6) =     22.85184  eV     1   --> A              
     e(  7 -  7) =     24.41334  eV     1   --> A              
     e(  8 -  8) =     27.15245  eV     1   --> A              

 **************************************************************************

 **************************************************************************

                    xk=(   0.38750,   0.33750,   0.72500  )

     Band symmetry, C_1 (1)     point group:

     e(  1 -  1) =     -1.98527  eV     1   --> A              
     e(  2 -  2) =      0.55671  eV     1   --> A              
     e(  3 -  3) =      7.32845  eV     1   --> A              
     e(  4 -  4) =      8.93486  eV     1   --> A              
     e(  5 -  5) =     19.95644  eV     1   --> A              
     e(  6 -  6) =     23.26227  eV     1   --> A              
     e(  7 -  7) =     24.24746  eV     1   --> A              
     e(  8 -  8) =     27.29706  eV     1   --> A              

 **************************************************************************

 **************************************************************************

                    xk=(   0.37500,   0.37500,   0.75000  )

     point group C_s (m)    
     there are  2 classes
     the character table:

       E     s    
A'     1.00  1.00
A''    1.00 -1.00

     the symmetry operations in each class and the name of the first element:

     E        1
                                                                 
     s        2
                                                                 

     Band symmetry, C_s (m)     point group:

     e(  1 -  1) =     -1.88226  eV     1   --> A'             
     e(  2 -  2) =      0.52078  eV     1   --> A'             
     e(  3 -  3) =      7.09115  eV     1   --> A'             
     e(  4 -  4) =      8.99917  eV     1   --> A''            
     e(  5 -  5) =     19.91659  eV     1   --> A'             
     e(  6 -  6) =     23.48134  eV     1   --> A''            
     e(  7 -  7) =     24.21698  eV     1   --> A'             
     e(  8 -  8) =     27.46366  eV     1   --> A'             

 **************************************************************************

 **************************************************************************

                    xk=(   0.33750,   0.33750,   0.67500  )

     Band symmetry, C_s (m)     point group:

     e(  1 -  1) =     -2.52046  eV     1   --> A'             
     e(  2 -  2) =      0.97863  eV     1   --> A'             
     e(  3 -  3) =      7.86296  eV     1   --> A'             
     e(  4 -  4) =      8.96509  eV     1   --> A''            
     e(  5 -  5) =     19.85375  eV     1   --> A'             
     e(  6 -  6) =     23.38143  eV     1   --> A''            
     e(  7 -  7) =     23.76953  eV     1   --> A'             
     e(  8 -  8) =     26.90566  eV     1   --> A'             

 **************************************************************************

 **************************************************************************

                    xk=(   0.30000,   0.30000,   0.60000  )

     Band symmetry, C_s (m)     point group:

     e(  1 -  1) =     -3.56528  eV     1   --> A'             
     e(  2 -  2) =      2.08513  eV     1   --> A'             
     e(  3 -  3) =      8.65552  eV     1   --> A'             
     e(  4 -  4) =      9.06296  eV     1   --> A''            
     e(  5 -  5) =     19.82489  eV     1   --> A'             
     e(  6 -  6) =     23.18018  eV     1   --> A''            
     e(  7 -  7) =     23.29370  eV     1   --> A'             
     e(  8 -  8) =     26.40058  eV     1   --> A'             

 **************************************************************************

 **************************************************************************

                    xk=(   0.26250,   0.26250,   0.52500  )

     Band symmetry, C_s (m)     point group:

     e(  1 -  1) =     -4.60406  eV     1   --> A'             
     e(  2 -  2) =      3.42752  eV     1   --> A'             
     e(  3 -  3) =      9.29567  eV     1   --> A''            
     e(  4 -  4) =      9.44149  eV     1   --> A'             
     e(  5 -  5) =     19.77315  eV     1   --> A'             
     e(  6 -  6) =     22.78674  eV     1   --> A'             
     e(  7 -  7) =     22.87115  eV     1   --> A''            
     e(  8 -  8) =     26.10039  eV     1   --> A'             

 **************************************************************************

 **************************************************************************

                    xk=(   0.22500,   0.22500,   0.45000  )

     Band symmetry, C_s (m)     point group:

     e(  1 -  1) =     -5.54422  eV     1   --> A'             
     e(  2 -  2) =      4.90488  eV     1   --> A'             
     e(  3 -  3) =      9.66031  eV     1   --> A''            
     e(  4 -  4) =     10.19517  eV     1   --> A'             
     e(  5 -  5) =     19.64527  eV     1   --> A'             
     e(  6 -  6) =     22.24040  eV     1   --> A'             
     e(  7 -  7) =     22.42582  eV     1   --> A''            
     e(  8 -  8) =     26.03782  eV     1   --> A'             

 **************************************************************************

 **************************************************************************

                    xk=(   0.18750,   0.18750,   0.37500  )

     Band symmetry, C_s (m)     point group:

     e(  1 -  1) =     -6.35756  eV     1   --> A'             
     e(  2 -  2) =      6.47129  eV     1   --> A'             
     e(  3 -  3) =     10.14779  eV     1   --> A''            
     e(  4 -  4) =     10.89470  eV     1   --> A'             
     e(  5 -  5) =     19.42612  eV     1   --> A'             
     e(  6 -  6) =     21.64332  eV     1   --> A'             
     e(  7 -  7) =     21.81718  eV     1   --> A''            
     e(  8 -  8) =     26.11874  eV     1   --> A'             

 **************************************************************************

 **************************************************************************

                    xk=(   0.15000,   0.15000,   0.30000  )

     Band symmetry, C_s (m)     point group:

     e(  1 -  1) =     -7.03191  eV     1   --> A'             
     e(  2 -  2) =      8.08392  eV     1   --> A'             
     e(  3 -  3) =     10.74003  eV     1   --> A''            
     e(  4 -  4) =     11.52053  eV     1   --> A'             
     e(  5 -  5) =     19.14447  eV     1   --> A'             
     e(  6 -  6) =     20.97838  eV     1   --> A'             
     e(  7 -  7) =     21.04896  eV     1   --> A''            
     e(  8 -  8) =     26.15489  eV     1   --> A'             

 **************************************************************************

 **************************************************************************

                    xk=(   0.11250,   0.11250,   0.22500  )

     Band symmetry, C_s (m)     point group:

     e(  1 -  1) =     -7.56091  eV     1   --> A'             
     e(  2 -  2) =      9.68397  eV     1   --> A'             
     e(  3 -  3) =     11.40281  eV     1   --> A''            
     e(  4 -  4) =     12.05305  eV     1   --> A'             
     e(  5 -  5) =     18.84998  eV     1   --> A'             
     e(  6 -  6) =     20.17544  eV     1   --> A''            
     e(  7 -  7) =     20.23157  eV     1   --> A'             
     e(  8 -  8) =     26.03148  eV     1   --> A'             

 **************************************************************************

 **************************************************************************

                    xk=(   0.07500,   0.07500,   0.15000  )

     Band symmetry, C_s (m)     point group:

     e(  1 -  1) =     -7.94088  eV     1   --> A'             
     e(  2 -  2) =     11.17082  eV     1   --> A'             
     e(  3 -  3) =     12.06843  eV     1   --> A''            
     e(  4 -  4) =     12.46823  eV     1   --> A'             
     e(  5 -  5) =     18.59213  eV     1   --> A'             
     e(  6 -  6) =     19.30806  eV     1   --> A''            
     e(  7 -  7) =     19.42305  eV     1   --> A'             
     e(  8 -  8) =     25.81164  eV     1   --> A'             

 **************************************************************************

 **************************************************************************

                    xk=(   0.03750,   0.03750,   0.07500  )

     Band symmetry, C_s (m)     point group:

     e(  1 -  1) =     -8.16963  eV     1   --> A'             
     e(  2 -  2) =     12.34529  eV     1   --> A'             
     e(  3 -  3) =     12.60978  eV     1   --> A''            
     e(  4 -  4) =     12.73623  eV     1   --> A'             
     e(  5 -  5) =     18.41462  eV     1   --> A'             
     e(  6 -  6) =     18.62328  eV     1   --> A''            
     e(  7 -  7) =     18.68506  eV     1   --> A'             
     e(  8 -  8) =     25.62365  eV     1   --> A'             

 **************************************************************************

 **************************************************************************

                    xk=(   0.00000,   0.00000,   0.00000  )

     point group O_h (m-3m) 
     there are 10 classes
     the character table:

       E     8C3   3C2   6C4   6C2'  i     8S6   3s_h  6S4   6s_d 
A_1g   1.00  1.00  1.00  1.00  1.00  1.00  1.00  1.00  1.00  1.00
A_2g   1.00  1.00  1.00 -1.00 -1.00  1.00  1.00  1.00 -1.00 -1.00
E_g    2.00 -1.00  2.00  0.00  0.00  2.00 -1.00  2.00  0.00  0.00
T_1g   3.00  0.00 -1.00  1.00 -1.00  3.00  0.00 -1.00  1.00 -1.00
T_2g   3.00  0.00 -1.00 -1.00  1.00  3.00  0.00 -1.00 -1.00  1.00
A_1u   1.00  1.00  1.00  1.00  1.00 -1.00 -1.00 -1.00 -1.00 -1.00
A_2u   1.00  1.00  1.00 -1.00 -1.00 -1.00 -1.00 -1.00  1.00  1.00
E_u    2.00 -1.00  2.00  0.00  0.00 -2.00  1.00 -2.00  0.00  0.00
T_1u   3.00  0.00 -1.00  1.00 -1.00 -3.00  0.00  1.00 -1.00  1.00
T_2u   3.00  0.00 -1.00 -1.00  1.00 -3.00  0.00  1.00  1.00 -1.00

     the symmetry operations in each class and the name of the first element:

     E        1
                                                                 
     8C3     17   19   20   18   24   21   22   23
                                                                 
     3C2      2    4    3
                                                                 
     6C4      7    8   15   16   12   11
                                                                 
     6C2'     5    6   14   13   10    9
                                                                 
     i       25
                                                                 
     8S6     41   43   44   42   48   45   46   47
                                                                 
     3s_h    26   28   27
                                                                 
     6S4     31   32   39   40   36   35
                                                                 
     6s_d    29   30   38   37   34   33
                                                                 

     Band symmetry, O_h (m-3m)  point group:

     e(  1 -  1) =     -8.24598  eV     1   --> A_1g G_1   G_1+
     e(  2 -  4) =     12.82949  eV     3   --> T_2g G_25' G_5+
     e(  5 -  7) =     18.35168  eV     3   --> T_1u G_15  G_4-
     e(  8 -  8) =     25.55234  eV     1   --> A_2u G_2'  G_2-

 **************************************************************************

 **************************************************************************

                    xk=(   0.05000,   0.05000,   0.05000  )

     point group C_3v (3m)  
     there are  3 classes
     the character table:

       E     2C3   3s_v 
A_1    1.00  1.00  1.00
A_2    1.00  1.00 -1.00
E      2.00 -1.00  0.00

     the symmetry operations in each class and the name of the first element:

     E        1
                                                                 
     2C3      2    3
                                                                 
     3s_v     4    5    6
                                                                 

     Band symmetry, C_3v (3m)   point group:

     e(  1 -  1) =     -8.17811  eV     1   --> A_1  L_1       
     e(  2 -  2) =     12.35694  eV     1   --> A_1  L_1       
     e(  3 -  4) =     12.70991  eV     2   --> E    L_3       
     e(  5 -  6) =     18.50750  eV     2   --> E    L_3       
     e(  7 -  7) =     18.63673  eV     1   --> A_1  L_1       
     e(  8 -  8) =     25.61759  eV     1   --> A_1  L_1       

 **************************************************************************

 **************************************************************************

                    xk=(   0.10000,   0.10000,   0.10000  )

     Band symmetry, C_3v (3m)   point group:

     e(  1 -  1) =     -7.97474  eV     1   --> A_1  L_1       
     e(  2 -  2) =     11.19287  eV     1   --> A_1  L_1       
     e(  3 -  4) =     12.39579  eV     2   --> E    L_3       
     e(  5 -  6) =     18.91850  eV     2   --> E    L_3       
     e(  7 -  7) =     19.25057  eV     1   --> A_1  L_1       
     e(  8 -  8) =     25.81292  eV     1   --> A_1  L_1       

 **************************************************************************

 **************************************************************************

                    xk=(   0.15000,   0.15000,   0.15000  )

     Band symmetry, C_3v (3m)   point group:

     e(  1 -  1) =     -7.63685  eV     1   --> A_1  L_1       
     e(  2 -  2) =      9.69410  eV     1   --> A_1  L_1       
     e(  3 -  4) =     11.98146  eV     2   --> E    L_3       
     e(  5 -  6) =     19.46334  eV     2   --> E    L_3       
     e(  7 -  7) =     19.87465  eV     1   --> A_1  L_1       
     e(  8 -  8) =     26.13056  eV     1   --> A_1  L_1       

 **************************************************************************

 **************************************************************************

                    xk=(   0.20000,   0.20000,   0.20000  )

     Band symmetry, C_3v (3m)   point group:

     e(  1 -  1) =     -7.16622  eV     1   --> A_1  L_1       
     e(  2 -  2) =      8.05625  eV     1   --> A_1  L_1       
     e(  3 -  4) =     11.54286  eV     2   --> E    L_3       
     e(  5 -  6) =     20.01969  eV     2   --> E    L_3       
     e(  7 -  7) =     20.37647  eV     1   --> A_1  L_1       
     e(  8 -  8) =     26.54437  eV     1   --> A_1  L_1       

 **************************************************************************

 **************************************************************************

                    xk=(   0.25000,   0.25000,   0.25000  )

     Band symmetry, C_3v (3m)   point group:

     e(  1 -  1) =     -6.56586  eV     1   --> A_1  L_1       
     e(  2 -  2) =      6.38104  eV     1   --> A_1  L_1       
     e(  3 -  4) =     11.13000  eV     2   --> E    L_3       
     e(  5 -  6) =     20.49502  eV     2   --> E    L_3       
     e(  7 -  7) =     20.74069  eV     1   --> A_1  L_1       
     e(  8 -  8) =     27.00740  eV     1   --> A_1  L_1       

 **************************************************************************

 **************************************************************************

                    xk=(   0.30000,   0.30000,   0.30000  )

     Band symmetry, C_3v (3m)   point group:

     e(  1 -  1) =     -5.84116  eV     1   --> A_1  L_1       
     e(  2 -  2) =      4.72837  eV     1   --> A_1  L_1       
     e(  3 -  4) =     10.77085  eV     2   --> E    L_3       
     e(  5 -  6) =     20.83685  eV     2   --> E    L_3       
     e(  7 -  7) =     20.99145  eV     1   --> A_1  L_1       
     e(  8 -  8) =     27.45619  eV     1   --> A_1  L_1       

 **************************************************************************

 **************************************************************************

                    xk=(   0.35000,   0.35000,   0.35000  )

     Band symmetry, C_3v (3m)   point group:

     e(  1 -  1) =     -5.00258  eV     1   --> A_1  L_1       
     e(  2 -  2) =      3.14179  eV     1   --> A_1  L_1       
     e(  3 -  4) =     10.48129  eV     2   --> E    L_3       
     e(  5 -  6) =     21.04164  eV     2   --> E    L_3       
     e(  7 -  7) =     21.15911  eV     1   --> A_1  L_1       
     e(  8 -  8) =     27.82780  eV     1   --> A_1  L_1       

 **************************************************************************

 **************************************************************************

                    xk=(   0.40000,   0.40000,   0.40000  )

     Band symmetry, C_3v (3m)   point group:

     e(  1 -  1) =     -4.07550  eV     1   --> A_1  L_1       
     e(  2 -  2) =      1.66794  eV     1   --> A_1  L_1       
     e(  3 -  4) =     10.26985  eV     2   --> E    L_3       
     e(  5 -  6) =     21.14165  eV     2   --> E    L_3       
     e(  7 -  7) =     21.26583  eV     1   --> A_1  L_1       
     e(  8 -  8) =     28.08179  eV     1   --> A_1  L_1       

 **************************************************************************

 **************************************************************************

                    xk=(   0.45000,   0.45000,   0.45000  )

     Band symmetry, C_3v (3m)   point group:

     e(  1 -  1) =     -3.14737  eV     1   --> A_1  L_1       
     e(  2 -  2) =      0.40685  eV     1   --> A_1  L_1       
     e(  3 -  4) =     10.14152  eV     2   --> E    L_3       
     e(  5 -  6) =     21.17882  eV     2   --> E    L_3       
     e(  7 -  7) =     21.32555  eV     1   --> A_1  L_1       
     e(  8 -  8) =     28.21951  eV     1   --> A_1  L_1       

 **************************************************************************

 **************************************************************************

                    xk=(   0.50000,   0.50000,   0.50000  )

     zone border point and non-symmorphic group 
     symmetry decomposition not available

 **************************************************************************

 **************************************************************************

                    xk=(   0.47500,   0.47500,   0.47500  )

     point group C_3v (3m)  
     there are  3 classes
     the character table:

       E     2C3   3s_v 
A_1    1.00  1.00  1.00
A_2    1.00  1.00 -1.00
E      2.00 -1.00  0.00

     the symmetry operations in each class and the name of the first element:

     E        1
                                                                 
     2C3      2    3
                                                                 
     3s_v     4    5    6
                                                                 

     Band symmetry, C_3v (3m)   point group:

     e(  1 -  1) =     -2.78187  eV     1   --> A_1  L_1       
     e(  2 -  2) =     -0.04243  eV     1   --> A_1  L_1       
     e(  3 -  4) =     10.10930  eV     2   --> E    L_3       
     e(  5 -  6) =     21.18544  eV     2   --> E    L_3       
     e(  7 -  7) =     21.33995  eV     1   --> A_1  L_1       
     e(  8 -  8) =     28.25117  eV     1   --> A_1  L_1       

 **************************************************************************

 **************************************************************************

                    xk=(   0.45000,   0.45000,   0.45000  )

     Band symmetry, C_3v (3m)   point group:

     e(  1 -  1) =     -3.14737  eV     1   --> A_1  L_1       
     e(  2 -  2) =      0.40685  eV     1   --> A_1  L_1       
     e(  3 -  4) =     10.14152  eV     2   --> E    L_3       
     e(  5 -  6) =     21.17882  eV     2   --> E    L_3       
     e(  7 -  7) =     21.32555  eV     1   --> A_1  L_1       
     e(  8 -  8) =     28.21951  eV     1   --> A_1  L_1       

 **************************************************************************

 **************************************************************************

                    xk=(   0.42500,   0.42500,   0.42500  )

     Band symmetry, C_3v (3m)   point group:

     e(  1 -  1) =     -3.59983  eV     1   --> A_1  L_1       
     e(  2 -  2) =      0.99851  eV     1   --> A_1  L_1       
     e(  3 -  4) =     10.19512  eV     2   --> E    L_3       
     e(  5 -  6) =     21.16559  eV     2   --> E    L_3       
     e(  7 -  7) =     21.30101  eV     1   --> A_1  L_1       
     e(  8 -  8) =     28.16413  eV     1   --> A_1  L_1       

 **************************************************************************

 **************************************************************************

                    xk=(   0.40000,   0.40000,   0.40000  )

     Band symmetry, C_3v (3m)   point group:

     e(  1 -  1) =     -4.07550  eV     1   --> A_1  L_1       
     e(  2 -  2) =      1.66794  eV     1   --> A_1  L_1       
     e(  3 -  4) =     10.26985  eV     2   --> E    L_3       
     e(  5 -  6) =     21.14165  eV     2   --> E    L_3       
     e(  7 -  7) =     21.26583  eV     1   --> A_1  L_1       
     e(  8 -  8) =     28.08179  eV     1   --> A_1  L_1       

 **************************************************************************

 **************************************************************************

                    xk=(   0.37500,   0.37500,   0.37500  )

     Band symmetry, C_3v (3m)   point group:

     e(  1 -  1) =     -4.54728  eV     1   --> A_1  L_1       
     e(  2 -  2) =      2.38695  eV     1   --> A_1  L_1       
     e(  3 -  4) =     10.36533  eV     2   --> E    L_3       
     e(  5 -  6) =     21.10194  eV     2   --> E    L_3       
     e(  7 -  7) =     21.21880  eV     1   --> A_1  L_1       
     e(  8 -  8) =     27.96981  eV     1   --> A_1  L_1       

 **************************************************************************

 **************************************************************************

                    xk=(   0.35000,   0.35000,   0.35000  )

     Band symmetry, C_3v (3m)   point group:

     e(  1 -  1) =     -5.00258  eV     1   --> A_1  L_1       
     e(  2 -  2) =      3.14179  eV     1   --> A_1  L_1       
     e(  3 -  4) =     10.48129  eV     2   --> E    L_3       
     e(  5 -  6) =     21.04164  eV     2   --> E    L_3       
     e(  7 -  7) =     21.15911  eV     1   --> A_1  L_1       
     e(  8 -  8) =     27.82780  eV     1   --> A_1  L_1       

 **************************************************************************

 **************************************************************************

                    xk=(   0.32500,   0.32500,   0.32500  )

     Band symmetry, C_3v (3m)   point group:

     e(  1 -  1) =     -5.43507  eV     1   --> A_1  L_1       
     e(  2 -  2) =      3.92423  eV     1   --> A_1  L_1       
     e(  3 -  4) =     10.61676  eV     2   --> E    L_3       
     e(  5 -  6) =     20.95494  eV     2   --> E    L_3       
     e(  7 -  7) =     21.08411  eV     1   --> A_1  L_1       
     e(  8 -  8) =     27.65533  eV     1   --> A_1  L_1       

 **************************************************************************

 **************************************************************************

                    xk=(   0.30000,   0.30000,   0.30000  )

     Band symmetry, C_3v (3m)   point group:

     e(  1 -  1) =     -5.84116  eV     1   --> A_1  L_1       
     e(  2 -  2) =      4.72837  eV     1   --> A_1  L_1       
     e(  3 -  4) =     10.77085  eV     2   --> E    L_3       
     e(  5 -  6) =     20.83685  eV     2   --> E    L_3       
     e(  7 -  7) =     20.99145  eV     1   --> A_1  L_1       
     e(  8 -  8) =     27.45619  eV     1   --> A_1  L_1       

 **************************************************************************

 **************************************************************************

                    xk=(   0.27500,   0.27500,   0.27500  )

     Band symmetry, C_3v (3m)   point group:

     e(  1 -  1) =     -6.21857  eV     1   --> A_1  L_1       
     e(  2 -  2) =      5.54905  eV     1   --> A_1  L_1       
     e(  3 -  4) =     10.94247  eV     2   --> E    L_3       
     e(  5 -  6) =     20.68395  eV     2   --> E    L_3       
     e(  7 -  7) =     20.87823  eV     1   --> A_1  L_1       
     e(  8 -  8) =     27.23780  eV     1   --> A_1  L_1       

 **************************************************************************

 **************************************************************************

                    xk=(   0.25000,   0.25000,   0.25000  )

     Band symmetry, C_3v (3m)   point group:

     e(  1 -  1) =     -6.56586  eV     1   --> A_1  L_1       
     e(  2 -  2) =      6.38104  eV     1   --> A_1  L_1       
     e(  3 -  4) =     11.13000  eV     2   --> E    L_3       
     e(  5 -  6) =     20.49502  eV     2   --> E    L_3       
     e(  7 -  7) =     20.74069  eV     1   --> A_1  L_1       
     e(  8 -  8) =     27.00740  eV     1   --> A_1  L_1       

 **************************************************************************

     BANDS        :      0.38s CPU      0.43s WALL


   This run was terminated on:  14:30:18   6Oct2024            

=------------------------------------------------------------------------------=
   JOB DONE.
=------------------------------------------------------------------------------=
