
     Program BANDS v.7.3.1 starts on  6Oct2024 at  0:15:20 

     This program is part of the open-source Quantum ESPRESSO suite
     for quantum simulation of materials; please cite
         "P. Giannozzi et al., J. Phys.:Condens. Matter 21 395502 (2009);
         "P. Giannozzi et al., J. Phys.:Condens. Matter 29 465901 (2017);
         "P. Giannozzi et al., J. Chem. Phys. 152 154105 (2020);
          URL http://www.quantum-espresso.org", 
     in publications or presentations arising from this work. More details at
     http://www.quantum-espresso.org/quote

     Parallel version (MPI & OpenMP), running on       2 processor cores
     Number of MPI processes:                 2
     Threads/MPI process:                     1

     MPI processes distributed on     1 nodes
     R & G space division:  proc/nbgrp/npool/nimage =       2
     507624 MiB available memory on the printing compute node when the environment starts


     Reading xml data from directory:

     ./diamond.save/

     IMPORTANT: XC functional enforced from input :
     Exchange-correlation= PBE
                           (   1   4   3   4   0   0   0)
     Any further DFT definition will be discarded
     Please, verify this is what you really want


     Parallelization info
     --------------------
     sticks:   dense  smooth     PW     G-vecs:    dense   smooth      PW
     Min         156     156     63                 1847     1847     482
     Max         157     157     64                 1848     1848     483
     Sum         313     313    127                 3695     3695     965

     Using Slab Decomposition

     Reading collected, re-writing distributed wavefunctions
     high-symmetry point:  0.0000 0.0000 0.0000   x coordinate   0.0000
     high-symmetry point:  0.5000 0.0000 0.5000   x coordinate   0.7071
     high-symmetry point:  0.3750 0.3750 0.7500   x coordinate   1.1748
     high-symmetry point:  0.0000 0.0000 0.0000   x coordinate   2.0934
     high-symmetry point:  0.5000 0.5000 0.5000   x coordinate   2.9594
     high-symmetry point:  0.2500 0.2500 0.2500   x coordinate   3.3924

     Plottable bands (eV) written to file bands.dat.gnu
     Bands written to file bands.dat

 **************************************************************************

                    xk=(   0.00000,   0.00000,   0.00000  )

     point group O_h (m-3m) 
     there are 10 classes
     the character table:

       E     8C3   3C2   6C4   6C2'  i     8S6   3s_h  6S4   6s_d 
A_1g   1.00  1.00  1.00  1.00  1.00  1.00  1.00  1.00  1.00  1.00
A_2g   1.00  1.00  1.00 -1.00 -1.00  1.00  1.00  1.00 -1.00 -1.00
E_g    2.00 -1.00  2.00  0.00  0.00  2.00 -1.00  2.00  0.00  0.00
T_1g   3.00  0.00 -1.00  1.00 -1.00  3.00  0.00 -1.00  1.00 -1.00
T_2g   3.00  0.00 -1.00 -1.00  1.00  3.00  0.00 -1.00 -1.00  1.00
A_1u   1.00  1.00  1.00  1.00  1.00 -1.00 -1.00 -1.00 -1.00 -1.00
A_2u   1.00  1.00  1.00 -1.00 -1.00 -1.00 -1.00 -1.00  1.00  1.00
E_u    2.00 -1.00  2.00  0.00  0.00 -2.00  1.00 -2.00  0.00  0.00
T_1u   3.00  0.00 -1.00  1.00 -1.00 -3.00  0.00  1.00 -1.00  1.00
T_2u   3.00  0.00 -1.00 -1.00  1.00 -3.00  0.00  1.00  1.00 -1.00

     the symmetry operations in each class and the name of the first element:

     E        1
                                                                 
     8C3     17   19   20   18   24   21   22   23
                                                                 
     3C2      2    4    3
                                                                 
     6C4      7    8   15   16   12   11
                                                                 
     6C2'     5    6   14   13   10    9
                                                                 
     i       25
                                                                 
     8S6     41   43   44   42   48   45   46   47
                                                                 
     3s_h    26   28   27
                                                                 
     6S4     31   32   39   40   36   35
                                                                 
     6s_d    29   30   38   37   34   33
                                                                 

     Band symmetry, O_h (m-3m)  point group:

     e(  1 -  1) =     -8.11449  eV     1   --> A_1g G_1   G_1+
     e(  2 -  4) =     13.34085  eV     3   --> T_2g G_25' G_5+
     e(  5 -  7) =     18.94328  eV     3   --> T_1u G_15  G_4-
     e(  8 -  8) =     26.71947  eV     1   --> A_2u G_2'  G_2-

 **************************************************************************

 **************************************************************************

                    xk=(   0.05000,   0.00000,   0.05000  )

     point group C_2v (mm2) 
     there are  4 classes
     the character table:

       E     C2    s_v   s_v' 
A_1    1.00  1.00  1.00  1.00
A_2    1.00  1.00 -1.00 -1.00
B_1    1.00 -1.00  1.00 -1.00
B_2    1.00 -1.00 -1.00  1.00

     the symmetry operations in each class and the name of the first element:

     E        1
                                                                 
     C2       2
                                                                 
     s_v      3
                                                                 
     s_v'     4
                                                                 

     Band symmetry, C_2v (mm2)  point group:

     e(  1 -  1) =     -8.06831  eV     1   --> A_1  D_1  S_1  
     e(  2 -  2) =     13.06784  eV     1   --> B_2  D_4  S_4  
     e(  3 -  3) =     13.14650  eV     1   --> A_1  D_1  S_1  
     e(  4 -  4) =     13.31252  eV     1   --> A_2  D_2  S_2  
     e(  5 -  5) =     18.99055  eV     1   --> B_1  D_3  S_3  
     e(  6 -  6) =     19.09487  eV     1   --> A_1  D_1  S_1  
     e(  7 -  7) =     19.16951  eV     1   --> B_2  D_4  S_4  
     e(  8 -  8) =     26.75723  eV     1   --> B_2  D_4  S_4  

 **************************************************************************

 **************************************************************************

                    xk=(   0.10000,   0.00000,   0.10000  )

     Band symmetry, C_2v (mm2)  point group:

     e(  1 -  1) =     -7.92993  eV     1   --> A_1  D_1  S_1  
     e(  2 -  2) =     12.36808  eV     1   --> B_2  D_4  S_4  
     e(  3 -  3) =     12.62138  eV     1   --> A_1  D_1  S_1  
     e(  4 -  4) =     13.22621  eV     1   --> A_2  D_2  S_2  
     e(  5 -  5) =     19.13141  eV     1   --> B_1  D_3  S_3  
     e(  6 -  6) =     19.49702  eV     1   --> A_1  D_1  S_1  
     e(  7 -  7) =     19.72317  eV     1   --> B_2  D_4  S_4  
     e(  8 -  8) =     26.86055  eV     1   --> B_2  D_4  S_4  

 **************************************************************************

 **************************************************************************

                    xk=(   0.15000,   0.00000,   0.15000  )

     Band symmetry, C_2v (mm2)  point group:

     e(  1 -  1) =     -7.69973  eV     1   --> A_1  D_1  S_1  
     e(  2 -  2) =     11.43885  eV     1   --> B_2  D_4  S_4  
     e(  3 -  3) =     11.87853  eV     1   --> A_1  D_1  S_1  
     e(  4 -  4) =     13.07818  eV     1   --> A_2  D_2  S_2  
     e(  5 -  5) =     19.36423  eV     1   --> B_1  D_3  S_3  
     e(  6 -  6) =     20.05643  eV     1   --> A_1  D_1  S_1  
     e(  7 -  7) =     20.38941  eV     1   --> B_2  D_4  S_4  
     e(  8 -  8) =     26.99760  eV     1   --> B_2  D_4  S_4  

 **************************************************************************

 **************************************************************************

                    xk=(   0.20000,   0.00000,   0.20000  )

     Band symmetry, C_2v (mm2)  point group:

     e(  1 -  1) =     -7.37839  eV     1   --> A_1  D_1  S_1  
     e(  2 -  2) =     10.41409  eV     1   --> B_2  D_4  S_4  
     e(  3 -  3) =     11.01413  eV     1   --> A_1  D_1  S_1  
     e(  4 -  4) =     12.86429  eV     1   --> A_2  D_2  S_2  
     e(  5 -  5) =     19.68809  eV     1   --> B_1  D_3  S_3  
     e(  6 -  6) =     20.70757  eV     1   --> A_1  D_1  S_1  
     e(  7 -  7) =     21.02003  eV     1   --> B_2  D_4  S_4  
     e(  8 -  8) =     27.11620  eV     1   --> B_2  D_4  S_4  

 **************************************************************************

 **************************************************************************

                    xk=(   0.25000,   0.00000,   0.25000  )

     Band symmetry, C_2v (mm2)  point group:

     e(  1 -  1) =     -6.96694  eV     1   --> A_1  D_1  S_1  
     e(  2 -  2) =      9.36438  eV     1   --> B_2  D_4  S_4  
     e(  3 -  3) =     10.09263  eV     1   --> A_1  D_1  S_1  
     e(  4 -  4) =     12.58222  eV     1   --> A_2  D_2  S_2  
     e(  5 -  5) =     20.10121  eV     1   --> B_1  D_3  S_3  
     e(  6 -  6) =     21.41907  eV     1   --> A_1  D_1  S_1  
     e(  7 -  7) =     21.53096  eV     1   --> B_2  D_4  S_4  
     e(  8 -  8) =     27.16314  eV     1   --> B_2  D_4  S_4  

 **************************************************************************

 **************************************************************************

                    xk=(   0.30000,   0.00000,   0.30000  )

     Band symmetry, C_2v (mm2)  point group:

     e(  1 -  1) =     -6.46696  eV     1   --> A_1  D_1  S_1  
     e(  2 -  2) =      8.32765  eV     1   --> B_2  D_4  S_4  
     e(  3 -  3) =      9.15568  eV     1   --> A_1  D_1  S_1  
     e(  4 -  4) =     12.23208  eV     1   --> A_2  D_2  S_2  
     e(  5 -  5) =     20.60026  eV     1   --> B_1  D_3  S_3  
     e(  6 -  6) =     21.87346  eV     1   --> B_2  D_4  S_4  
     e(  7 -  7) =     22.18091  eV     1   --> A_1  D_1  S_1  
     e(  8 -  8) =     27.12593  eV     1   --> B_2  D_4  S_4  

 **************************************************************************

 **************************************************************************

                    xk=(   0.35000,   0.00000,   0.35000  )

     Band symmetry, C_2v (mm2)  point group:

     e(  1 -  1) =     -5.88070  eV     1   --> A_1  D_1  S_1  
     e(  2 -  2) =      7.32633  eV     1   --> B_2  D_4  S_4  
     e(  3 -  3) =      8.23192  eV     1   --> A_1  D_1  S_1  
     e(  4 -  4) =     11.81852  eV     1   --> A_2  D_2  S_2  
     e(  5 -  5) =     21.18102  eV     1   --> B_1  D_3  S_3  
     e(  6 -  6) =     22.01634  eV     1   --> B_2  D_4  S_4  
     e(  7 -  7) =     22.99046  eV     1   --> A_1  D_1  S_1  
     e(  8 -  8) =     27.05398  eV     1   --> B_2  D_4  S_4  

 **************************************************************************

 **************************************************************************

                    xk=(   0.40000,   0.00000,   0.40000  )

     Band symmetry, C_2v (mm2)  point group:

     e(  1 -  1) =     -5.21155  eV     1   --> A_1  D_1  S_1  
     e(  2 -  2) =      6.37474  eV     1   --> B_2  D_4  S_4  
     e(  3 -  3) =      7.34338  eV     1   --> A_1  D_1  S_1  
     e(  4 -  4) =     11.35325  eV     1   --> A_2  D_2  S_2  
     e(  5 -  5) =     21.83864  eV     1   --> B_1  D_3  S_3  
     e(  6 -  6) =     21.95001  eV     1   --> B_2  D_4  S_4  
     e(  7 -  7) =     23.85143  eV     1   --> A_1  D_1  S_1  
     e(  8 -  8) =     27.02689  eV     1   --> B_2  D_4  S_4  

 **************************************************************************

 **************************************************************************

                    xk=(   0.45000,   0.00000,   0.45000  )

     Band symmetry, C_2v (mm2)  point group:

     e(  1 -  1) =     -4.46448  eV     1   --> A_1  D_1  S_1  
     e(  2 -  2) =      5.48228  eV     1   --> B_2  D_4  S_4  
     e(  3 -  3) =      6.50750  eV     1   --> A_1  D_1  S_1  
     e(  4 -  4) =     10.85052  eV     1   --> A_2  D_2  S_2  
     e(  5 -  5) =     21.69684  eV     1   --> B_2  D_4  S_4  
     e(  6 -  6) =     22.56675  eV     1   --> B_1  D_3  S_3  
     e(  7 -  7) =     24.76316  eV     1   --> A_1  D_1  S_1  
     e(  8 -  8) =     27.09871  eV     1   --> B_2  D_4  S_4  

 **************************************************************************

 **************************************************************************

                    xk=(   0.50000,   0.00000,   0.50000  )

     Band symmetry, C_2v (mm2)  point group:

     e(  1 -  1) =     -3.64758  eV     1   --> A_1  D_1  S_1  
     e(  2 -  2) =      4.65517  eV     1   --> B_2  D_4  S_4  
     e(  3 -  3) =      5.73975  eV     1   --> A_1  D_1  S_1  
     e(  4 -  4) =     10.32731  eV     1   --> A_2  D_2  S_2  
     e(  5 -  5) =     21.30848  eV     1   --> B_2  D_4  S_4  
     e(  6 -  6) =     23.35539  eV     1   --> B_1  D_3  S_3  
     e(  7 -  7) =     25.71554  eV     1   --> A_1  D_1  S_1  
     e(  8 -  8) =     27.27541  eV     1   --> B_2  D_4  S_4  

 **************************************************************************

 **************************************************************************

                    xk=(   0.48750,   0.03750,   0.52500  )

     point group C_1 (1)    
     there are  1 classes
     the character table:

       E    
A      1.00

     the symmetry operations in each class and the name of the first element:

     E        1
                                                                 

     Band symmetry, C_1 (1)     point group:

     e(  1 -  1) =     -3.52375  eV     1   --> A              
     e(  2 -  2) =      4.33551  eV     1   --> A              
     e(  3 -  3) =      5.88159  eV     1   --> A              
     e(  4 -  4) =     10.23386  eV     1   --> A              
     e(  5 -  5) =     21.29950  eV     1   --> A              
     e(  6 -  6) =     23.37473  eV     1   --> A              
     e(  7 -  7) =     25.76304  eV     1   --> A              
     e(  8 -  8) =     27.35532  eV     1   --> A              

 **************************************************************************

 **************************************************************************

                    xk=(   0.47500,   0.07500,   0.55000  )

     Band symmetry, C_1 (1)     point group:

     e(  1 -  1) =     -3.36503  eV     1   --> A              
     e(  2 -  2) =      3.81186  eV     1   --> A              
     e(  3 -  3) =      6.25225  eV     1   --> A              
     e(  4 -  4) =     10.08993  eV     1   --> A              
     e(  5 -  5) =     21.37804  eV     1   --> A              
     e(  6 -  6) =     23.23301  eV     1   --> A              
     e(  7 -  7) =     25.70851  eV     1   --> A              
     e(  8 -  8) =     27.49995  eV     1   --> A              

 **************************************************************************

 **************************************************************************

                    xk=(   0.46250,   0.11250,   0.57500  )

     Band symmetry, C_1 (1)     point group:

     e(  1 -  1) =     -3.17300  eV     1   --> A              
     e(  2 -  2) =      3.25670  eV     1   --> A              
     e(  3 -  3) =      6.67644  eV     1   --> A              
     e(  4 -  4) =      9.90421  eV     1   --> A              
     e(  5 -  5) =     21.52871  eV     1   --> A              
     e(  6 -  6) =     22.96030  eV     1   --> A              
     e(  7 -  7) =     25.63939  eV     1   --> A              
     e(  8 -  8) =     27.63286  eV     1   --> A              

 **************************************************************************

 **************************************************************************

                    xk=(   0.45000,   0.15000,   0.60000  )

     Band symmetry, C_1 (1)     point group:

     e(  1 -  1) =     -2.95023  eV     1   --> A              
     e(  2 -  2) =      2.71421  eV     1   --> A              
     e(  3 -  3) =      7.10154  eV     1   --> A              
     e(  4 -  4) =      9.69074  eV     1   --> A              
     e(  5 -  5) =     21.69712  eV     1   --> A              
     e(  6 -  6) =     22.64759  eV     1   --> A              
     e(  7 -  7) =     25.59306  eV     1   --> A              
     e(  8 -  8) =     27.71964  eV     1   --> A              

 **************************************************************************

 **************************************************************************

                    xk=(   0.43750,   0.18750,   0.62500  )

     Band symmetry, C_1 (1)     point group:

     e(  1 -  1) =     -2.70085  eV     1   --> A              
     e(  2 -  2) =      2.20196  eV     1   --> A              
     e(  3 -  3) =      7.49266  eV     1   --> A              
     e(  4 -  4) =      9.47134  eV     1   --> A              
     e(  5 -  5) =     21.68555  eV     1   --> A              
     e(  6 -  6) =     22.53940  eV     1   --> A              
     e(  7 -  7) =     25.55852  eV     1   --> A              
     e(  8 -  8) =     27.76767  eV     1   --> A              

 **************************************************************************

 **************************************************************************

                    xk=(   0.42500,   0.22500,   0.65000  )

     Band symmetry, C_1 (1)     point group:

     e(  1 -  1) =     -2.43177  eV     1   --> A              
     e(  2 -  2) =      1.73295  eV     1   --> A              
     e(  3 -  3) =      7.80189  eV     1   --> A              
     e(  4 -  4) =      9.28531  eV     1   --> A              
     e(  5 -  5) =     21.39071  eV     1   --> A              
     e(  6 -  6) =     22.78048  eV     1   --> A              
     e(  7 -  7) =     25.50848  eV     1   --> A              
     e(  8 -  8) =     27.80590  eV     1   --> A              

 **************************************************************************

 **************************************************************************

                    xk=(   0.41250,   0.26250,   0.67500  )

     Band symmetry, C_1 (1)     point group:

     e(  1 -  1) =     -2.15527  eV     1   --> A              
     e(  2 -  2) =      1.32246  eV     1   --> A              
     e(  3 -  3) =      7.95501  eV     1   --> A              
     e(  4 -  4) =      9.19685  eV     1   --> A              
     e(  5 -  5) =     21.04407  eV     1   --> A              
     e(  6 -  6) =     23.16727  eV     1   --> A              
     e(  7 -  7) =     25.41743  eV     1   --> A              
     e(  8 -  8) =     27.86630  eV     1   --> A              

 **************************************************************************

 **************************************************************************

                    xk=(   0.40000,   0.30000,   0.70000  )

     Band symmetry, C_1 (1)     point group:

     e(  1 -  1) =     -1.89347  eV     1   --> A              
     e(  2 -  2) =      0.99410  eV     1   --> A              
     e(  3 -  3) =      7.90730  eV     1   --> A              
     e(  4 -  4) =      9.23899  eV     1   --> A              
     e(  5 -  5) =     20.76001  eV     1   --> A              
     e(  6 -  6) =     23.59643  eV     1   --> A              
     e(  7 -  7) =     25.27684  eV     1   --> A              
     e(  8 -  8) =     27.97010  eV     1   --> A              

 **************************************************************************

 **************************************************************************

                    xk=(   0.38750,   0.33750,   0.72500  )

     Band symmetry, C_1 (1)     point group:

     e(  1 -  1) =     -1.68408  eV     1   --> A              
     e(  2 -  2) =      0.78616  eV     1   --> A              
     e(  3 -  3) =      7.72170  eV     1   --> A              
     e(  4 -  4) =      9.33702  eV     1   --> A              
     e(  5 -  5) =     20.58547  eV     1   --> A              
     e(  6 -  6) =     23.99684  eV     1   --> A              
     e(  7 -  7) =     25.12230  eV     1   --> A              
     e(  8 -  8) =     28.12069  eV     1   --> A              

 **************************************************************************

 **************************************************************************

                    xk=(   0.37500,   0.37500,   0.75000  )

     point group C_s (m)    
     there are  2 classes
     the character table:

       E     s    
A'     1.00  1.00
A''    1.00 -1.00

     the symmetry operations in each class and the name of the first element:

     E        1
                                                                 
     s        2
                                                                 

     Band symmetry, C_s (m)     point group:

     e(  1 -  1) =     -1.57533  eV     1   --> A'             
     e(  2 -  2) =      0.74653  eV     1   --> A'             
     e(  3 -  3) =      7.47785  eV     1   --> A'             
     e(  4 -  4) =      9.40367  eV     1   --> A''            
     e(  5 -  5) =     20.54612  eV     1   --> A'             
     e(  6 -  6) =     24.19948  eV     1   --> A''            
     e(  7 -  7) =     25.11135  eV     1   --> A'             
     e(  8 -  8) =     28.29848  eV     1   --> A'             

 **************************************************************************

 **************************************************************************

                    xk=(   0.33750,   0.33750,   0.67500  )

     Band symmetry, C_s (m)     point group:

     e(  1 -  1) =     -2.24644  eV     1   --> A'             
     e(  2 -  2) =      1.23151  eV     1   --> A'             
     e(  3 -  3) =      8.26900  eV     1   --> A'             
     e(  4 -  4) =      9.36827  eV     1   --> A''            
     e(  5 -  5) =     20.48218  eV     1   --> A'             
     e(  6 -  6) =     24.09424  eV     1   --> A''            
     e(  7 -  7) =     24.65578  eV     1   --> A'             
     e(  8 -  8) =     27.70710  eV     1   --> A'             

 **************************************************************************

 **************************************************************************

                    xk=(   0.30000,   0.30000,   0.60000  )

     Band symmetry, C_s (m)     point group:

     e(  1 -  1) =     -3.32782  eV     1   --> A'             
     e(  2 -  2) =      2.37391  eV     1   --> A'             
     e(  3 -  3) =      9.08084  eV     1   --> A'             
     e(  4 -  4) =      9.46831  eV     1   --> A''            
     e(  5 -  5) =     20.45536  eV     1   --> A'             
     e(  6 -  6) =     23.88967  eV     1   --> A''            
     e(  7 -  7) =     24.16455  eV     1   --> A'             
     e(  8 -  8) =     27.18489  eV     1   --> A'             

 **************************************************************************

 **************************************************************************

                    xk=(   0.26250,   0.26250,   0.52500  )

     Band symmetry, C_s (m)     point group:

     e(  1 -  1) =     -4.39412  eV     1   --> A'             
     e(  2 -  2) =      3.74810  eV     1   --> A'             
     e(  3 -  3) =      9.70656  eV     1   --> A''            
     e(  4 -  4) =      9.88499  eV     1   --> A'             
     e(  5 -  5) =     20.40697  eV     1   --> A'             
     e(  6 -  6) =     23.57728  eV     1   --> A''            
     e(  7 -  7) =     23.63381  eV     1   --> A'             
     e(  8 -  8) =     26.88762  eV     1   --> A'             

 **************************************************************************

 **************************************************************************

                    xk=(   0.22500,   0.22500,   0.45000  )

     Band symmetry, C_s (m)     point group:

     e(  1 -  1) =     -5.35622  eV     1   --> A'             
     e(  2 -  2) =      5.25635  eV     1   --> A'             
     e(  3 -  3) =     10.08053  eV     1   --> A''            
     e(  4 -  4) =     10.65525  eV     1   --> A'             
     e(  5 -  5) =     20.27995  eV     1   --> A'             
     e(  6 -  6) =     23.05649  eV     1   --> A'             
     e(  7 -  7) =     23.12638  eV     1   --> A''            
     e(  8 -  8) =     26.85804  eV     1   --> A'             

 **************************************************************************

 **************************************************************************

                    xk=(   0.18750,   0.18750,   0.37500  )

     Band symmetry, C_s (m)     point group:

     e(  1 -  1) =     -6.18727  eV     1   --> A'             
     e(  2 -  2) =      6.85381  eV     1   --> A'             
     e(  3 -  3) =     10.58070  eV     1   --> A''            
     e(  4 -  4) =     11.36899  eV     1   --> A'             
     e(  5 -  5) =     20.05651  eV     1   --> A'             
     e(  6 -  6) =     22.42034  eV     1   --> A'             
     e(  7 -  7) =     22.50748  eV     1   --> A''            
     e(  8 -  8) =     27.00940  eV     1   --> A'             

 **************************************************************************

 **************************************************************************

                    xk=(   0.15000,   0.15000,   0.30000  )

     Band symmetry, C_s (m)     point group:

     e(  1 -  1) =     -6.87577  eV     1   --> A'             
     e(  2 -  2) =      8.49802  eV     1   --> A'             
     e(  3 -  3) =     11.18907  eV     1   --> A''            
     e(  4 -  4) =     12.00740  eV     1   --> A'             
     e(  5 -  5) =     19.76690  eV     1   --> A'             
     e(  6 -  6) =     21.71064  eV     1   --> A'             
     e(  7 -  7) =     21.72228  eV     1   --> A''            
     e(  8 -  8) =     27.14261  eV     1   --> A'             

 **************************************************************************

 **************************************************************************

                    xk=(   0.11250,   0.11250,   0.22500  )

     Band symmetry, C_s (m)     point group:

     e(  1 -  1) =     -7.41563  eV     1   --> A'             
     e(  2 -  2) =     10.12915  eV     1   --> A'             
     e(  3 -  3) =     11.87009  eV     1   --> A''            
     e(  4 -  4) =     12.55001  eV     1   --> A'             
     e(  5 -  5) =     19.46201  eV     1   --> A'             
     e(  6 -  6) =     20.82530  eV     1   --> A''            
     e(  7 -  7) =     20.91618  eV     1   --> A'             
     e(  8 -  8) =     27.10561  eV     1   --> A'             

 **************************************************************************

 **************************************************************************

                    xk=(   0.07500,   0.07500,   0.15000  )

     Band symmetry, C_s (m)     point group:

     e(  1 -  1) =     -7.80326  eV     1   --> A'             
     e(  2 -  2) =     11.64667  eV     1   --> A'             
     e(  3 -  3) =     12.55582  eV     1   --> A''            
     e(  4 -  4) =     12.97308  eV     1   --> A'             
     e(  5 -  5) =     19.19459  eV     1   --> A'             
     e(  6 -  6) =     19.93227  eV     1   --> A''            
     e(  7 -  7) =     20.06408  eV     1   --> A'             
     e(  8 -  8) =     26.94168  eV     1   --> A'             

 **************************************************************************

 **************************************************************************

                    xk=(   0.03750,   0.03750,   0.07500  )

     Band symmetry, C_s (m)     point group:

     e(  1 -  1) =     -8.03658  eV     1   --> A'             
     e(  2 -  2) =     12.84616  eV     1   --> A'             
     e(  3 -  3) =     13.11365  eV     1   --> A''            
     e(  4 -  4) =     13.24595  eV     1   --> A'             
     e(  5 -  5) =     19.01017  eV     1   --> A'             
     e(  6 -  6) =     19.22482  eV     1   --> A''            
     e(  7 -  7) =     19.29197  eV     1   --> A'             
     e(  8 -  8) =     26.78226  eV     1   --> A'             

 **************************************************************************

 **************************************************************************

                    xk=(   0.00000,   0.00000,   0.00000  )

     point group O_h (m-3m) 
     there are 10 classes
     the character table:

       E     8C3   3C2   6C4   6C2'  i     8S6   3s_h  6S4   6s_d 
A_1g   1.00  1.00  1.00  1.00  1.00  1.00  1.00  1.00  1.00  1.00
A_2g   1.00  1.00  1.00 -1.00 -1.00  1.00  1.00  1.00 -1.00 -1.00
E_g    2.00 -1.00  2.00  0.00  0.00  2.00 -1.00  2.00  0.00  0.00
T_1g   3.00  0.00 -1.00  1.00 -1.00  3.00  0.00 -1.00  1.00 -1.00
T_2g   3.00  0.00 -1.00 -1.00  1.00  3.00  0.00 -1.00 -1.00  1.00
A_1u   1.00  1.00  1.00  1.00  1.00 -1.00 -1.00 -1.00 -1.00 -1.00
A_2u   1.00  1.00  1.00 -1.00 -1.00 -1.00 -1.00 -1.00  1.00  1.00
E_u    2.00 -1.00  2.00  0.00  0.00 -2.00  1.00 -2.00  0.00  0.00
T_1u   3.00  0.00 -1.00  1.00 -1.00 -3.00  0.00  1.00 -1.00  1.00
T_2u   3.00  0.00 -1.00 -1.00  1.00 -3.00  0.00  1.00  1.00 -1.00

     the symmetry operations in each class and the name of the first element:

     E        1
                                                                 
     8C3     17   19   20   18   24   21   22   23
                                                                 
     3C2      2    4    3
                                                                 
     6C4      7    8   15   16   12   11
                                                                 
     6C2'     5    6   14   13   10    9
                                                                 
     i       25
                                                                 
     8S6     41   43   44   42   48   45   46   47
                                                                 
     3s_h    26   28   27
                                                                 
     6S4     31   32   39   40   36   35
                                                                 
     6s_d    29   30   38   37   34   33
                                                                 

     Band symmetry, O_h (m-3m)  point group:

     e(  1 -  1) =     -8.11449  eV     1   --> A_1g G_1   G_1+
     e(  2 -  4) =     13.34085  eV     3   --> T_2g G_25' G_5+
     e(  5 -  7) =     18.94328  eV     3   --> T_1u G_15  G_4-
     e(  8 -  8) =     26.71947  eV     1   --> A_2u G_2'  G_2-

 **************************************************************************

 **************************************************************************

                    xk=(   0.05000,   0.05000,   0.05000  )

     point group C_3v (3m)  
     there are  3 classes
     the character table:

       E     2C3   3s_v 
A_1    1.00  1.00  1.00
A_2    1.00  1.00 -1.00
E      2.00 -1.00  0.00

     the symmetry operations in each class and the name of the first element:

     E        1
                                                                 
     2C3      2    3
                                                                 
     3s_v     4    5    6
                                                                 

     Band symmetry, C_3v (3m)   point group:

     e(  1 -  1) =     -8.04524  eV     1   --> A_1  L_1       
     e(  2 -  2) =     12.85815  eV     1   --> A_1  L_1       
     e(  3 -  4) =     13.21733  eV     2   --> E    L_3       
     e(  5 -  6) =     19.10464  eV     2   --> E    L_3       
     e(  7 -  7) =     19.24280  eV     1   --> A_1  L_1       
     e(  8 -  8) =     26.77727  eV     1   --> A_1  L_1       

 **************************************************************************

 **************************************************************************

                    xk=(   0.10000,   0.10000,   0.10000  )

     Band symmetry, C_3v (3m)   point group:

     e(  1 -  1) =     -7.83780  eV     1   --> A_1  L_1       
     e(  2 -  2) =     11.66936  eV     1   --> A_1  L_1       
     e(  3 -  4) =     12.89475  eV     2   --> E    L_3       
     e(  5 -  6) =     19.52955  eV     2   --> E    L_3       
     e(  7 -  7) =     19.89012  eV     1   --> A_1  L_1       
     e(  8 -  8) =     26.94946  eV     1   --> A_1  L_1       

 **************************************************************************

 **************************************************************************

                    xk=(   0.15000,   0.15000,   0.15000  )

     Band symmetry, C_3v (3m)   point group:

     e(  1 -  1) =     -7.49309  eV     1   --> A_1  L_1       
     e(  2 -  2) =     10.13910  eV     1   --> A_1  L_1       
     e(  3 -  4) =     12.46774  eV     2   --> E    L_3       
     e(  5 -  6) =     20.08964  eV     2   --> E    L_3       
     e(  7 -  7) =     20.55745  eV     1   --> A_1  L_1       
     e(  8 -  8) =     27.22770  eV     1   --> A_1  L_1       

 **************************************************************************

 **************************************************************************

                    xk=(   0.20000,   0.20000,   0.20000  )

     Band symmetry, C_3v (3m)   point group:

     e(  1 -  1) =     -7.01280  eV     1   --> A_1  L_1       
     e(  2 -  2) =      8.46858  eV     1   --> A_1  L_1       
     e(  3 -  4) =     12.01730  eV     2   --> E    L_3       
     e(  5 -  6) =     20.65932  eV     2   --> E    L_3       
     e(  7 -  7) =     21.10962  eV     1   --> A_1  L_1       
     e(  8 -  8) =     27.58930  eV     1   --> A_1  L_1       

 **************************************************************************

 **************************************************************************

                    xk=(   0.25000,   0.25000,   0.25000  )

     Band symmetry, C_3v (3m)   point group:

     e(  1 -  1) =     -6.39982  eV     1   --> A_1  L_1       
     e(  2 -  2) =      6.75989  eV     1   --> A_1  L_1       
     e(  3 -  4) =     11.59397  eV     2   --> E    L_3       
     e(  5 -  6) =     21.14249  eV     2   --> E    L_3       
     e(  7 -  7) =     21.52263  eV     1   --> A_1  L_1       
     e(  8 -  8) =     27.99229  eV     1   --> A_1  L_1       

 **************************************************************************

 **************************************************************************

                    xk=(   0.30000,   0.30000,   0.30000  )

     Band symmetry, C_3v (3m)   point group:

     e(  1 -  1) =     -5.65925  eV     1   --> A_1  L_1       
     e(  2 -  2) =      5.07329  eV     1   --> A_1  L_1       
     e(  3 -  4) =     11.22544  eV     2   --> E    L_3       
     e(  5 -  6) =     21.48577  eV     2   --> E    L_3       
     e(  7 -  7) =     21.81607  eV     1   --> A_1  L_1       
     e(  8 -  8) =     28.37711  eV     1   --> A_1  L_1       

 **************************************************************************

 **************************************************************************

                    xk=(   0.35000,   0.35000,   0.35000  )

     Band symmetry, C_3v (3m)   point group:

     e(  1 -  1) =     -4.80084  eV     1   --> A_1  L_1       
     e(  2 -  2) =      3.45261  eV     1   --> A_1  L_1       
     e(  3 -  4) =     10.92852  eV     2   --> E    L_3       
     e(  5 -  6) =     21.68740  eV     2   --> E    L_3       
     e(  7 -  7) =     22.01789  eV     1   --> A_1  L_1       
     e(  8 -  8) =     28.69013  eV     1   --> A_1  L_1       

 **************************************************************************

 **************************************************************************

                    xk=(   0.40000,   0.40000,   0.40000  )

     Band symmetry, C_3v (3m)   point group:

     e(  1 -  1) =     -3.84852  eV     1   --> A_1  L_1       
     e(  2 -  2) =      1.94293  eV     1   --> A_1  L_1       
     e(  3 -  4) =     10.71232  eV     2   --> E    L_3       
     e(  5 -  6) =     21.78212  eV     2   --> E    L_3       
     e(  7 -  7) =     22.14923  eV     1   --> A_1  L_1       
     e(  8 -  8) =     28.90004  eV     1   --> A_1  L_1       

 **************************************************************************

 **************************************************************************

                    xk=(   0.45000,   0.45000,   0.45000  )

     Band symmetry, C_3v (3m)   point group:

     e(  1 -  1) =     -2.88545  eV     1   --> A_1  L_1       
     e(  2 -  2) =      0.64067  eV     1   --> A_1  L_1       
     e(  3 -  4) =     10.58100  eV     2   --> E    L_3       
     e(  5 -  6) =     21.81575  eV     2   --> E    L_3       
     e(  7 -  7) =     22.22339  eV     1   --> A_1  L_1       
     e(  8 -  8) =     29.01060  eV     1   --> A_1  L_1       

 **************************************************************************

 **************************************************************************

                    xk=(   0.50000,   0.50000,   0.50000  )

     zone border point and non-symmorphic group 
     symmetry decomposition not available

 **************************************************************************

 **************************************************************************

                    xk=(   0.47500,   0.47500,   0.47500  )

     point group C_3v (3m)  
     there are  3 classes
     the character table:

       E     2C3   3s_v 
A_1    1.00  1.00  1.00
A_2    1.00  1.00 -1.00
E      2.00 -1.00  0.00

     the symmetry operations in each class and the name of the first element:

     E        1
                                                                 
     2C3      2    3
                                                                 
     3s_v     4    5    6
                                                                 

     Band symmetry, C_3v (3m)   point group:

     e(  1 -  1) =     -2.49883  eV     1   --> A_1  L_1       
     e(  2 -  2) =      0.16872  eV     1   --> A_1  L_1       
     e(  3 -  4) =     10.54805  eV     2   --> E    L_3       
     e(  5 -  6) =     21.82127  eV     2   --> E    L_3       
     e(  7 -  7) =     22.24152  eV     1   --> A_1  L_1       
     e(  8 -  8) =     29.03547  eV     1   --> A_1  L_1       

 **************************************************************************

 **************************************************************************

                    xk=(   0.45000,   0.45000,   0.45000  )

     Band symmetry, C_3v (3m)   point group:

     e(  1 -  1) =     -2.88545  eV     1   --> A_1  L_1       
     e(  2 -  2) =      0.64067  eV     1   --> A_1  L_1       
     e(  3 -  4) =     10.58100  eV     2   --> E    L_3       
     e(  5 -  6) =     21.81575  eV     2   --> E    L_3       
     e(  7 -  7) =     22.22339  eV     1   --> A_1  L_1       
     e(  8 -  8) =     29.01060  eV     1   --> A_1  L_1       

 **************************************************************************

 **************************************************************************

                    xk=(   0.42500,   0.42500,   0.42500  )

     Band symmetry, C_3v (3m)   point group:

     e(  1 -  1) =     -3.35695  eV     1   --> A_1  L_1       
     e(  2 -  2) =      1.25392  eV     1   --> A_1  L_1       
     e(  3 -  4) =     10.63593  eV     2   --> E    L_3       
     e(  5 -  6) =     21.80398  eV     2   --> E    L_3       
     e(  7 -  7) =     22.19297  eV     1   --> A_1  L_1       
     e(  8 -  8) =     28.96647  eV     1   --> A_1  L_1       

 **************************************************************************

 **************************************************************************

                    xk=(   0.40000,   0.40000,   0.40000  )

     Band symmetry, C_3v (3m)   point group:

     e(  1 -  1) =     -3.84852  eV     1   --> A_1  L_1       
     e(  2 -  2) =      1.94293  eV     1   --> A_1  L_1       
     e(  3 -  4) =     10.71232  eV     2   --> E    L_3       
     e(  5 -  6) =     21.78212  eV     2   --> E    L_3       
     e(  7 -  7) =     22.14923  eV     1   --> A_1  L_1       
     e(  8 -  8) =     28.90004  eV     1   --> A_1  L_1       

 **************************************************************************

 **************************************************************************

                    xk=(   0.37500,   0.37500,   0.37500  )

     Band symmetry, C_3v (3m)   point group:

     e(  1 -  1) =     -4.33376  eV     1   --> A_1  L_1       
     e(  2 -  2) =      2.68024  eV     1   --> A_1  L_1       
     e(  3 -  4) =     10.81001  eV     2   --> E    L_3       
     e(  5 -  6) =     21.74520  eV     2   --> E    L_3       
     e(  7 -  7) =     22.09134  eV     1   --> A_1  L_1       
     e(  8 -  8) =     28.80850  eV     1   --> A_1  L_1       

 **************************************************************************

 **************************************************************************

                    xk=(   0.35000,   0.35000,   0.35000  )

     Band symmetry, C_3v (3m)   point group:

     e(  1 -  1) =     -4.80084  eV     1   --> A_1  L_1       
     e(  2 -  2) =      3.45261  eV     1   --> A_1  L_1       
     e(  3 -  4) =     10.92852  eV     2   --> E    L_3       
     e(  5 -  6) =     21.68740  eV     2   --> E    L_3       
     e(  7 -  7) =     22.01789  eV     1   --> A_1  L_1       
     e(  8 -  8) =     28.69013  eV     1   --> A_1  L_1       

 **************************************************************************

 **************************************************************************

                    xk=(   0.32500,   0.32500,   0.32500  )

     Band symmetry, C_3v (3m)   point group:

     e(  1 -  1) =     -5.24384  eV     1   --> A_1  L_1       
     e(  2 -  2) =      4.25216  eV     1   --> A_1  L_1       
     e(  3 -  4) =     11.06719  eV     2   --> E    L_3       
     e(  5 -  6) =     21.60254  eV     2   --> E    L_3       
     e(  7 -  7) =     21.92680  eV     1   --> A_1  L_1       
     e(  8 -  8) =     28.54530  eV     1   --> A_1  L_1       

 **************************************************************************

 **************************************************************************

                    xk=(   0.30000,   0.30000,   0.30000  )

     Band symmetry, C_3v (3m)   point group:

     e(  1 -  1) =     -5.65925  eV     1   --> A_1  L_1       
     e(  2 -  2) =      5.07329  eV     1   --> A_1  L_1       
     e(  3 -  4) =     11.22544  eV     2   --> E    L_3       
     e(  5 -  6) =     21.48577  eV     2   --> E    L_3       
     e(  7 -  7) =     21.81607  eV     1   --> A_1  L_1       
     e(  8 -  8) =     28.37711  eV     1   --> A_1  L_1       

 **************************************************************************

 **************************************************************************

                    xk=(   0.27500,   0.27500,   0.27500  )

     Band symmetry, C_3v (3m)   point group:

     e(  1 -  1) =     -6.04504  eV     1   --> A_1  L_1       
     e(  2 -  2) =      5.91088  eV     1   --> A_1  L_1       
     e(  3 -  4) =     11.40136  eV     2   --> E    L_3       
     e(  5 -  6) =     21.33279  eV     2   --> E    L_3       
     e(  7 -  7) =     21.68237  eV     1   --> A_1  L_1       
     e(  8 -  8) =     28.19047  eV     1   --> A_1  L_1       

 **************************************************************************

 **************************************************************************

                    xk=(   0.25000,   0.25000,   0.25000  )

     Band symmetry, C_3v (3m)   point group:

     e(  1 -  1) =     -6.39982  eV     1   --> A_1  L_1       
     e(  2 -  2) =      6.75989  eV     1   --> A_1  L_1       
     e(  3 -  4) =     11.59397  eV     2   --> E    L_3       
     e(  5 -  6) =     21.14249  eV     2   --> E    L_3       
     e(  7 -  7) =     21.52263  eV     1   --> A_1  L_1       
     e(  8 -  8) =     27.99229  eV     1   --> A_1  L_1       

 **************************************************************************

     BANDS        :      0.35s CPU      0.39s WALL


   This run was terminated on:   0:15:20   6Oct2024            

=------------------------------------------------------------------------------=
   JOB DONE.
=------------------------------------------------------------------------------=
