
     Program PWSCF v.7.3.1 starts on  6Oct2024 at  0:15:17 

     This program is part of the open-source Quantum ESPRESSO suite
     for quantum simulation of materials; please cite
         "P. Giannozzi et al., J. Phys.:Condens. Matter 21 395502 (2009);
         "P. Giannozzi et al., J. Phys.:Condens. Matter 29 465901 (2017);
         "P. Giannozzi et al., J. Chem. Phys. 152 154105 (2020);
          URL http://www.quantum-espresso.org", 
     in publications or presentations arising from this work. More details at
     http://www.quantum-espresso.org/quote

     Parallel version (MPI & OpenMP), running on       2 processor cores
     Number of MPI processes:                 2
     Threads/MPI process:                     1

     MPI processes distributed on     1 nodes
     507627 MiB available memory on the printing compute node when the environment starts

     Waiting for input...
     Reading input from standard input
Warning: card &IONS ignored
Warning: card / ignored

     Current dimensions of program PWSCF are:
     Max number of different atomic species (ntypx) = 10
     Max number of k-points (npk) =  40000
     Max angular momentum in pseudopotentials (lmaxx) =  4
     Message from routine set_cutoff:
     ecutrho < 4*ecutwfc, are you sure?

     Atomic positions and unit cell read from directory:
     ./diamond.save/


     R & G space division:  proc/nbgrp/npool/nimage =       2
     Subspace diagonalization in iterative solution of the eigenvalue problem:
     a serial algorithm will be used


     Parallelization info
     --------------------
     sticks:   dense  smooth     PW     G-vecs:    dense   smooth      PW
     Min         156     156     63                 1847     1847     482
     Max         157     157     64                 1848     1848     483
     Sum         313     313    127                 3695     3695     965

     Using Slab Decomposition



     bravais-lattice index     =            2
     lattice parameter (alat)  =       6.7370  a.u.
     unit-cell volume          =      76.4433 (a.u.)^3
     number of atoms/cell      =            2
     number of atomic types    =            1
     number of electrons       =         8.00
     number of Kohn-Sham states=            8
     kinetic-energy cutoff     =      70.0000  Ry
     charge density cutoff     =     200.0000  Ry
     Exchange-correlation= PBE
                           (   1   4   3   4   0   0   0)

     celldm(1)=   6.737000  celldm(2)=   0.000000  celldm(3)=   0.000000
     celldm(4)=   0.000000  celldm(5)=   0.000000  celldm(6)=   0.000000

     crystal axes: (cart. coord. in units of alat)
               a(1) = (  -0.500000   0.000000   0.500000 )  
               a(2) = (   0.000000   0.500000   0.500000 )  
               a(3) = (  -0.500000   0.500000   0.000000 )  

     reciprocal axes: (cart. coord. in units 2 pi/alat)
               b(1) = ( -1.000000 -1.000000  1.000000 )  
               b(2) = (  1.000000  1.000000  1.000000 )  
               b(3) = ( -1.000000  1.000000 -1.000000 )  


     PseudoPot. # 1 for C  read from file:
     ./C_ONCV_PBE-1.0.upf
     MD5 check sum: 40f8c33130f0afa4272e9dcc1c4fb0df
     Pseudo is Norm-conserving, Zval =  4.0
     Generated using ONCVPSP code by D. R. Hamann
     Using radial grid of  602 points,  4 beta functions with: 
                l(1) =   0
                l(2) =   0
                l(3) =   1
                l(4) =   1

     atomic species   valence    mass     pseudopotential
     C                 4.00    12.00000     C ( 1.00)

     48 Sym. Ops., with inversion, found (24 have fractional translation)


                                    s                        frac. trans.

      isym =  1     identity                                     

 cryst.   s( 1) = (     1          0          0      )
                  (     0          1          0      )
                  (     0          0          1      )

 cart.    s( 1) = (  1.0000000  0.0000000  0.0000000 )
                  (  0.0000000  1.0000000  0.0000000 )
                  (  0.0000000  0.0000000  1.0000000 )


      isym =  2     180 deg rotation - cart. axis [0,0,1]        

 cryst.   s( 2) = (     0          1         -1      )
                  (     1          0         -1      )
                  (     0          0         -1      )

 cart.    s( 2) = ( -1.0000000  0.0000000  0.0000000 )
                  (  0.0000000 -1.0000000  0.0000000 )
                  (  0.0000000  0.0000000  1.0000000 )


      isym =  3     180 deg rotation - cart. axis [0,1,0]        

 cryst.   s( 3) = (    -1          0          0      )
                  (    -1          0          1      )
                  (    -1          1          0      )

 cart.    s( 3) = ( -1.0000000  0.0000000  0.0000000 )
                  (  0.0000000  1.0000000  0.0000000 )
                  (  0.0000000  0.0000000 -1.0000000 )


      isym =  4     180 deg rotation - cart. axis [1,0,0]        

 cryst.   s( 4) = (     0         -1          1      )
                  (     0         -1          0      )
                  (     1         -1          0      )

 cart.    s( 4) = (  1.0000000  0.0000000  0.0000000 )
                  (  0.0000000 -1.0000000  0.0000000 )
                  (  0.0000000  0.0000000 -1.0000000 )


      isym =  5     180 deg rotation - cart. axis [1,1,0]        

 cryst.   s( 5) = (     0         -1          0      )    f =(  0.2500000 )
                  (    -1          0          0      )       (  0.2500000 )
                  (     0          0         -1      )       (  0.2500000 )

 cart.    s( 5) = (  0.0000000  1.0000000  0.0000000 )    f =( -0.2500000 )
                  (  1.0000000  0.0000000  0.0000000 )       (  0.2500000 )
                  (  0.0000000  0.0000000 -1.0000000 )       (  0.2500000 )


      isym =  6     180 deg rotation - cart. axis [1,-1,0]       

 cryst.   s( 6) = (    -1          0          1      )    f =(  0.2500000 )
                  (     0         -1          1      )       (  0.2500000 )
                  (     0          0          1      )       (  0.2500000 )

 cart.    s( 6) = (  0.0000000 -1.0000000  0.0000000 )    f =( -0.2500000 )
                  ( -1.0000000  0.0000000  0.0000000 )       (  0.2500000 )
                  (  0.0000000  0.0000000 -1.0000000 )       (  0.2500000 )


      isym =  7      90 deg rotation - cart. axis [0,0,-1]       

 cryst.   s( 7) = (     0          1          0      )    f =(  0.2500000 )
                  (     0          1         -1      )       (  0.2500000 )
                  (    -1          1          0      )       (  0.2500000 )

 cart.    s( 7) = (  0.0000000  1.0000000  0.0000000 )    f =( -0.2500000 )
                  ( -1.0000000  0.0000000  0.0000000 )       (  0.2500000 )
                  (  0.0000000  0.0000000  1.0000000 )       (  0.2500000 )


      isym =  8      90 deg rotation - cart. axis [0,0,1]        

 cryst.   s( 8) = (     1          0         -1      )    f =(  0.2500000 )
                  (     1          0          0      )       (  0.2500000 )
                  (     1         -1          0      )       (  0.2500000 )

 cart.    s( 8) = (  0.0000000 -1.0000000  0.0000000 )    f =( -0.2500000 )
                  (  1.0000000  0.0000000  0.0000000 )       (  0.2500000 )
                  (  0.0000000  0.0000000  1.0000000 )       (  0.2500000 )


      isym =  9     180 deg rotation - cart. axis [1,0,1]        

 cryst.   s( 9) = (    -1          0          0      )    f =(  0.2500000 )
                  (     0          0         -1      )       (  0.2500000 )
                  (     0         -1          0      )       (  0.2500000 )

 cart.    s( 9) = (  0.0000000  0.0000000  1.0000000 )    f =( -0.2500000 )
                  (  0.0000000 -1.0000000  0.0000000 )       (  0.2500000 )
                  (  1.0000000  0.0000000  0.0000000 )       (  0.2500000 )


      isym = 10     180 deg rotation - cart. axis [-1,0,1]       

 cryst.   s(10) = (     1          0          0      )    f =(  0.2500000 )
                  (     1         -1          0      )       (  0.2500000 )
                  (     1          0         -1      )       (  0.2500000 )

 cart.    s(10) = (  0.0000000  0.0000000 -1.0000000 )    f =( -0.2500000 )
                  (  0.0000000 -1.0000000  0.0000000 )       (  0.2500000 )
                  ( -1.0000000  0.0000000  0.0000000 )       (  0.2500000 )


      isym = 11      90 deg rotation - cart. axis [0,1,0]        

 cryst.   s(11) = (     0          1         -1      )    f =(  0.2500000 )
                  (    -1          1          0      )       (  0.2500000 )
                  (     0          1          0      )       (  0.2500000 )

 cart.    s(11) = (  0.0000000  0.0000000  1.0000000 )    f =( -0.2500000 )
                  (  0.0000000  1.0000000  0.0000000 )       (  0.2500000 )
                  ( -1.0000000  0.0000000  0.0000000 )       (  0.2500000 )


      isym = 12      90 deg rotation - cart. axis [0,-1,0]       

 cryst.   s(12) = (     0         -1          1      )    f =(  0.2500000 )
                  (     0          0          1      )       (  0.2500000 )
                  (    -1          0          1      )       (  0.2500000 )

 cart.    s(12) = (  0.0000000  0.0000000 -1.0000000 )    f =( -0.2500000 )
                  (  0.0000000  1.0000000  0.0000000 )       (  0.2500000 )
                  (  1.0000000  0.0000000  0.0000000 )       (  0.2500000 )


      isym = 13     180 deg rotation - cart. axis [0,1,1]        

 cryst.   s(13) = (    -1          1          0      )    f =(  0.2500000 )
                  (     0          1          0      )       (  0.2500000 )
                  (     0          1         -1      )       (  0.2500000 )

 cart.    s(13) = ( -1.0000000  0.0000000  0.0000000 )    f =( -0.2500000 )
                  (  0.0000000  0.0000000  1.0000000 )       (  0.2500000 )
                  (  0.0000000  1.0000000  0.0000000 )       (  0.2500000 )


      isym = 14     180 deg rotation - cart. axis [0,1,-1]       

 cryst.   s(14) = (     0          0         -1      )    f =(  0.2500000 )
                  (     0         -1          0      )       (  0.2500000 )
                  (    -1          0          0      )       (  0.2500000 )

 cart.    s(14) = ( -1.0000000  0.0000000  0.0000000 )    f =( -0.2500000 )
                  (  0.0000000  0.0000000 -1.0000000 )       (  0.2500000 )
                  (  0.0000000 -1.0000000  0.0000000 )       (  0.2500000 )


      isym = 15      90 deg rotation - cart. axis [-1,0,0]       

 cryst.   s(15) = (     0          0          1      )    f =(  0.2500000 )
                  (    -1          0          1      )       (  0.2500000 )
                  (     0         -1          1      )       (  0.2500000 )

 cart.    s(15) = (  1.0000000  0.0000000  0.0000000 )    f =( -0.2500000 )
                  (  0.0000000  0.0000000  1.0000000 )       (  0.2500000 )
                  (  0.0000000 -1.0000000  0.0000000 )       (  0.2500000 )


      isym = 16      90 deg rotation - cart. axis [1,0,0]        

 cryst.   s(16) = (     1         -1          0      )    f =(  0.2500000 )
                  (     1          0         -1      )       (  0.2500000 )
                  (     1          0          0      )       (  0.2500000 )

 cart.    s(16) = (  1.0000000  0.0000000  0.0000000 )    f =( -0.2500000 )
                  (  0.0000000  0.0000000 -1.0000000 )       (  0.2500000 )
                  (  0.0000000  1.0000000  0.0000000 )       (  0.2500000 )


      isym = 17     120 deg rotation - cart. axis [-1,-1,-1]     

 cryst.   s(17) = (    -1          0          1      )
                  (    -1          1          0      )
                  (    -1          0          0      )

 cart.    s(17) = (  0.0000000  1.0000000  0.0000000 )
                  (  0.0000000  0.0000000  1.0000000 )
                  (  1.0000000  0.0000000  0.0000000 )


      isym = 18     120 deg rotation - cart. axis [-1,1,1]       

 cryst.   s(18) = (     0          1          0      )
                  (     0          0          1      )
                  (     1          0          0      )

 cart.    s(18) = (  0.0000000 -1.0000000  0.0000000 )
                  (  0.0000000  0.0000000  1.0000000 )
                  ( -1.0000000  0.0000000  0.0000000 )


      isym = 19     120 deg rotation - cart. axis [1,1,-1]       

 cryst.   s(19) = (     1          0         -1      )
                  (     0          0         -1      )
                  (     0          1         -1      )

 cart.    s(19) = (  0.0000000  1.0000000  0.0000000 )
                  (  0.0000000  0.0000000 -1.0000000 )
                  ( -1.0000000  0.0000000  0.0000000 )


      isym = 20     120 deg rotation - cart. axis [1,-1,1]       

 cryst.   s(20) = (     0         -1          0      )
                  (     1         -1          0      )
                  (     0         -1          1      )

 cart.    s(20) = (  0.0000000 -1.0000000  0.0000000 )
                  (  0.0000000  0.0000000 -1.0000000 )
                  (  1.0000000  0.0000000  0.0000000 )


      isym = 21     120 deg rotation - cart. axis [1,1,1]        

 cryst.   s(21) = (     0          0         -1      )
                  (     0          1         -1      )
                  (     1          0         -1      )

 cart.    s(21) = (  0.0000000  0.0000000  1.0000000 )
                  (  1.0000000  0.0000000  0.0000000 )
                  (  0.0000000  1.0000000  0.0000000 )


      isym = 22     120 deg rotation - cart. axis [-1,1,-1]      

 cryst.   s(22) = (    -1          1          0      )
                  (    -1          0          0      )
                  (    -1          0          1      )

 cart.    s(22) = (  0.0000000  0.0000000  1.0000000 )
                  ( -1.0000000  0.0000000  0.0000000 )
                  (  0.0000000 -1.0000000  0.0000000 )


      isym = 23     120 deg rotation - cart. axis [1,-1,-1]      

 cryst.   s(23) = (     0          0          1      )
                  (     1          0          0      )
                  (     0          1          0      )

 cart.    s(23) = (  0.0000000  0.0000000 -1.0000000 )
                  ( -1.0000000  0.0000000  0.0000000 )
                  (  0.0000000  1.0000000  0.0000000 )


      isym = 24     120 deg rotation - cart. axis [-1,-1,1]      

 cryst.   s(24) = (     1         -1          0      )
                  (     0         -1          1      )
                  (     0         -1          0      )

 cart.    s(24) = (  0.0000000  0.0000000 -1.0000000 )
                  (  1.0000000  0.0000000  0.0000000 )
                  (  0.0000000 -1.0000000  0.0000000 )


      isym = 25     inversion                                    

 cryst.   s(25) = (    -1          0          0      )    f =(  0.2500000 )
                  (     0         -1          0      )       (  0.2500000 )
                  (     0          0         -1      )       (  0.2500000 )

 cart.    s(25) = ( -1.0000000  0.0000000  0.0000000 )    f =( -0.2500000 )
                  (  0.0000000 -1.0000000  0.0000000 )       (  0.2500000 )
                  (  0.0000000  0.0000000 -1.0000000 )       (  0.2500000 )


      isym = 26     inv. 180 deg rotation - cart. axis [0,0,1]   

 cryst.   s(26) = (     0         -1          1      )    f =(  0.2500000 )
                  (    -1          0          1      )       (  0.2500000 )
                  (     0          0          1      )       (  0.2500000 )

 cart.    s(26) = (  1.0000000  0.0000000  0.0000000 )    f =( -0.2500000 )
                  (  0.0000000  1.0000000  0.0000000 )       (  0.2500000 )
                  (  0.0000000  0.0000000 -1.0000000 )       (  0.2500000 )


      isym = 27     inv. 180 deg rotation - cart. axis [0,1,0]   

 cryst.   s(27) = (     1          0          0      )    f =(  0.2500000 )
                  (     1          0         -1      )       (  0.2500000 )
                  (     1         -1          0      )       (  0.2500000 )

 cart.    s(27) = (  1.0000000  0.0000000  0.0000000 )    f =( -0.2500000 )
                  (  0.0000000 -1.0000000  0.0000000 )       (  0.2500000 )
                  (  0.0000000  0.0000000  1.0000000 )       (  0.2500000 )


      isym = 28     inv. 180 deg rotation - cart. axis [1,0,0]   

 cryst.   s(28) = (     0          1         -1      )    f =(  0.2500000 )
                  (     0          1          0      )       (  0.2500000 )
                  (    -1          1          0      )       (  0.2500000 )

 cart.    s(28) = ( -1.0000000  0.0000000  0.0000000 )    f =( -0.2500000 )
                  (  0.0000000  1.0000000  0.0000000 )       (  0.2500000 )
                  (  0.0000000  0.0000000  1.0000000 )       (  0.2500000 )


      isym = 29     inv. 180 deg rotation - cart. axis [1,1,0]   

 cryst.   s(29) = (     0          1          0      )
                  (     1          0          0      )
                  (     0          0          1      )

 cart.    s(29) = (  0.0000000 -1.0000000  0.0000000 )
                  ( -1.0000000  0.0000000  0.0000000 )
                  (  0.0000000  0.0000000  1.0000000 )


      isym = 30     inv. 180 deg rotation - cart. axis [1,-1,0]  

 cryst.   s(30) = (     1          0         -1      )
                  (     0          1         -1      )
                  (     0          0         -1      )

 cart.    s(30) = (  0.0000000  1.0000000  0.0000000 )
                  (  1.0000000  0.0000000  0.0000000 )
                  (  0.0000000  0.0000000  1.0000000 )


      isym = 31     inv.  90 deg rotation - cart. axis [0,0,-1]  

 cryst.   s(31) = (     0         -1          0      )
                  (     0         -1          1      )
                  (     1         -1          0      )

 cart.    s(31) = (  0.0000000 -1.0000000  0.0000000 )
                  (  1.0000000  0.0000000  0.0000000 )
                  (  0.0000000  0.0000000 -1.0000000 )


      isym = 32     inv.  90 deg rotation - cart. axis [0,0,1]   

 cryst.   s(32) = (    -1          0          1      )
                  (    -1          0          0      )
                  (    -1          1          0      )

 cart.    s(32) = (  0.0000000  1.0000000  0.0000000 )
                  ( -1.0000000  0.0000000  0.0000000 )
                  (  0.0000000  0.0000000 -1.0000000 )


      isym = 33     inv. 180 deg rotation - cart. axis [1,0,1]   

 cryst.   s(33) = (     1          0          0      )
                  (     0          0          1      )
                  (     0          1          0      )

 cart.    s(33) = (  0.0000000  0.0000000 -1.0000000 )
                  (  0.0000000  1.0000000  0.0000000 )
                  ( -1.0000000  0.0000000  0.0000000 )


      isym = 34     inv. 180 deg rotation - cart. axis [-1,0,1]  

 cryst.   s(34) = (    -1          0          0      )
                  (    -1          1          0      )
                  (    -1          0          1      )

 cart.    s(34) = (  0.0000000  0.0000000  1.0000000 )
                  (  0.0000000  1.0000000  0.0000000 )
                  (  1.0000000  0.0000000  0.0000000 )


      isym = 35     inv.  90 deg rotation - cart. axis [0,1,0]   

 cryst.   s(35) = (     0         -1          1      )
                  (     1         -1          0      )
                  (     0         -1          0      )

 cart.    s(35) = (  0.0000000  0.0000000 -1.0000000 )
                  (  0.0000000 -1.0000000  0.0000000 )
                  (  1.0000000  0.0000000  0.0000000 )


      isym = 36     inv.  90 deg rotation - cart. axis [0,-1,0]  

 cryst.   s(36) = (     0          1         -1      )
                  (     0          0         -1      )
                  (     1          0         -1      )

 cart.    s(36) = (  0.0000000  0.0000000  1.0000000 )
                  (  0.0000000 -1.0000000  0.0000000 )
                  ( -1.0000000  0.0000000  0.0000000 )


      isym = 37     inv. 180 deg rotation - cart. axis [0,1,1]   

 cryst.   s(37) = (     1         -1          0      )
                  (     0         -1          0      )
                  (     0         -1          1      )

 cart.    s(37) = (  1.0000000  0.0000000  0.0000000 )
                  (  0.0000000  0.0000000 -1.0000000 )
                  (  0.0000000 -1.0000000  0.0000000 )


      isym = 38     inv. 180 deg rotation - cart. axis [0,1,-1]  

 cryst.   s(38) = (     0          0          1      )
                  (     0          1          0      )
                  (     1          0          0      )

 cart.    s(38) = (  1.0000000  0.0000000  0.0000000 )
                  (  0.0000000  0.0000000  1.0000000 )
                  (  0.0000000  1.0000000  0.0000000 )


      isym = 39     inv.  90 deg rotation - cart. axis [-1,0,0]  

 cryst.   s(39) = (     0          0         -1      )
                  (     1          0         -1      )
                  (     0          1         -1      )

 cart.    s(39) = ( -1.0000000  0.0000000  0.0000000 )
                  (  0.0000000  0.0000000 -1.0000000 )
                  (  0.0000000  1.0000000  0.0000000 )


      isym = 40     inv.  90 deg rotation - cart. axis [1,0,0]   

 cryst.   s(40) = (    -1          1          0      )
                  (    -1          0          1      )
                  (    -1          0          0      )

 cart.    s(40) = ( -1.0000000  0.0000000  0.0000000 )
                  (  0.0000000  0.0000000  1.0000000 )
                  (  0.0000000 -1.0000000  0.0000000 )


      isym = 41     inv. 120 deg rotation - cart. axis [-1,-1,-1]

 cryst.   s(41) = (     1          0         -1      )    f =(  0.2500000 )
                  (     1         -1          0      )       (  0.2500000 )
                  (     1          0          0      )       (  0.2500000 )

 cart.    s(41) = (  0.0000000 -1.0000000  0.0000000 )    f =( -0.2500000 )
                  (  0.0000000  0.0000000 -1.0000000 )       (  0.2500000 )
                  ( -1.0000000  0.0000000  0.0000000 )       (  0.2500000 )


      isym = 42     inv. 120 deg rotation - cart. axis [-1,1,1]  

 cryst.   s(42) = (     0         -1          0      )    f =(  0.2500000 )
                  (     0          0         -1      )       (  0.2500000 )
                  (    -1          0          0      )       (  0.2500000 )

 cart.    s(42) = (  0.0000000  1.0000000  0.0000000 )    f =( -0.2500000 )
                  (  0.0000000  0.0000000 -1.0000000 )       (  0.2500000 )
                  (  1.0000000  0.0000000  0.0000000 )       (  0.2500000 )


      isym = 43     inv. 120 deg rotation - cart. axis [1,1,-1]  

 cryst.   s(43) = (    -1          0          1      )    f =(  0.2500000 )
                  (     0          0          1      )       (  0.2500000 )
                  (     0         -1          1      )       (  0.2500000 )

 cart.    s(43) = (  0.0000000 -1.0000000  0.0000000 )    f =( -0.2500000 )
                  (  0.0000000  0.0000000  1.0000000 )       (  0.2500000 )
                  (  1.0000000  0.0000000  0.0000000 )       (  0.2500000 )


      isym = 44     inv. 120 deg rotation - cart. axis [1,-1,1]  

 cryst.   s(44) = (     0          1          0      )    f =(  0.2500000 )
                  (    -1          1          0      )       (  0.2500000 )
                  (     0          1         -1      )       (  0.2500000 )

 cart.    s(44) = (  0.0000000  1.0000000  0.0000000 )    f =( -0.2500000 )
                  (  0.0000000  0.0000000  1.0000000 )       (  0.2500000 )
                  ( -1.0000000  0.0000000  0.0000000 )       (  0.2500000 )


      isym = 45     inv. 120 deg rotation - cart. axis [1,1,1]   

 cryst.   s(45) = (     0          0          1      )    f =(  0.2500000 )
                  (     0         -1          1      )       (  0.2500000 )
                  (    -1          0          1      )       (  0.2500000 )

 cart.    s(45) = (  0.0000000  0.0000000 -1.0000000 )    f =( -0.2500000 )
                  ( -1.0000000  0.0000000  0.0000000 )       (  0.2500000 )
                  (  0.0000000 -1.0000000  0.0000000 )       (  0.2500000 )


      isym = 46     inv. 120 deg rotation - cart. axis [-1,1,-1] 

 cryst.   s(46) = (     1         -1          0      )    f =(  0.2500000 )
                  (     1          0          0      )       (  0.2500000 )
                  (     1          0         -1      )       (  0.2500000 )

 cart.    s(46) = (  0.0000000  0.0000000 -1.0000000 )    f =( -0.2500000 )
                  (  1.0000000  0.0000000  0.0000000 )       (  0.2500000 )
                  (  0.0000000  1.0000000  0.0000000 )       (  0.2500000 )


      isym = 47     inv. 120 deg rotation - cart. axis [1,-1,-1] 

 cryst.   s(47) = (     0          0         -1      )    f =(  0.2500000 )
                  (    -1          0          0      )       (  0.2500000 )
                  (     0         -1          0      )       (  0.2500000 )

 cart.    s(47) = (  0.0000000  0.0000000  1.0000000 )    f =( -0.2500000 )
                  (  1.0000000  0.0000000  0.0000000 )       (  0.2500000 )
                  (  0.0000000 -1.0000000  0.0000000 )       (  0.2500000 )


      isym = 48     inv. 120 deg rotation - cart. axis [-1,-1,1] 

 cryst.   s(48) = (    -1          1          0      )    f =(  0.2500000 )
                  (     0          1         -1      )       (  0.2500000 )
                  (     0          1          0      )       (  0.2500000 )

 cart.    s(48) = (  0.0000000  0.0000000  1.0000000 )    f =( -0.2500000 )
                  ( -1.0000000  0.0000000  0.0000000 )       (  0.2500000 )
                  (  0.0000000  1.0000000  0.0000000 )       (  0.2500000 )


     point group O_h (m-3m) 
     there are 10 classes
     the character table:

       E     8C3   3C2   6C4   6C2'  i     8S6   3s_h  6S4   6s_d 
A_1g   1.00  1.00  1.00  1.00  1.00  1.00  1.00  1.00  1.00  1.00
A_2g   1.00  1.00  1.00 -1.00 -1.00  1.00  1.00  1.00 -1.00 -1.00
E_g    2.00 -1.00  2.00  0.00  0.00  2.00 -1.00  2.00  0.00  0.00
T_1g   3.00  0.00 -1.00  1.00 -1.00  3.00  0.00 -1.00  1.00 -1.00
T_2g   3.00  0.00 -1.00 -1.00  1.00  3.00  0.00 -1.00 -1.00  1.00
A_1u   1.00  1.00  1.00  1.00  1.00 -1.00 -1.00 -1.00 -1.00 -1.00
A_2u   1.00  1.00  1.00 -1.00 -1.00 -1.00 -1.00 -1.00  1.00  1.00
E_u    2.00 -1.00  2.00  0.00  0.00 -2.00  1.00 -2.00  0.00  0.00
T_1u   3.00  0.00 -1.00  1.00 -1.00 -3.00  0.00  1.00 -1.00  1.00
T_2u   3.00  0.00 -1.00 -1.00  1.00 -3.00  0.00  1.00  1.00 -1.00

     the symmetry operations in each class and the name of the first element:

     E        1
          identity                                               
     8C3     17   19   20   18   24   21   22   23
          120 deg rotation - cart. axis [-1,-1,-1]               
     3C2      2    4    3
          180 deg rotation - cart. axis [0,0,1]                  
     6C4      7    8   15   16   12   11
           90 deg rotation - cart. axis [0,0,-1]                 
     6C2'     5    6   14   13   10    9
          180 deg rotation - cart. axis [1,1,0]                  
     i       25
          inversion                                              
     8S6     41   43   44   42   48   45   46   47
          inv. 120 deg rotation - cart. axis [-1,-1,-1]          
     3s_h    26   28   27
          inv. 180 deg rotation - cart. axis [0,0,1]             
     6S4     31   32   39   40   36   35
          inv.  90 deg rotation - cart. axis [0,0,-1]            
     6s_d    29   30   38   37   34   33
          inv. 180 deg rotation - cart. axis [1,1,0]             

   Cartesian axes

     site n.     atom                  positions (alat units)
         1        C      tau(   1) = (   0.0000000   0.0000000   0.0000000  )
         2        C      tau(   2) = (   0.2500000   0.2500000   0.2500000  )

   Crystallographic axes

     site n.     atom                  positions (cryst. coord.)
         1        C      tau(   1) = (  0.0000000  0.0000000  0.0000000  )
         2        C      tau(   2) = ( -0.2500000  0.7500000 -0.2500000  )

     number of k points=    51
                       cart. coord. in units 2pi/alat
        k(    1) = (   0.0000000   0.0000000   0.0000000), wk =   0.0392157
        k(    2) = (   0.0500000   0.0000000   0.0500000), wk =   0.0392157
        k(    3) = (   0.1000000   0.0000000   0.1000000), wk =   0.0392157
        k(    4) = (   0.1500000   0.0000000   0.1500000), wk =   0.0392157
        k(    5) = (   0.2000000   0.0000000   0.2000000), wk =   0.0392157
        k(    6) = (   0.2500000   0.0000000   0.2500000), wk =   0.0392157
        k(    7) = (   0.3000000   0.0000000   0.3000000), wk =   0.0392157
        k(    8) = (   0.3500000   0.0000000   0.3500000), wk =   0.0392157
        k(    9) = (   0.4000000   0.0000000   0.4000000), wk =   0.0392157
        k(   10) = (   0.4500000   0.0000000   0.4500000), wk =   0.0392157
        k(   11) = (   0.5000000   0.0000000   0.5000000), wk =   0.0392157
        k(   12) = (   0.4875000   0.0375000   0.5250000), wk =   0.0392157
        k(   13) = (   0.4750000   0.0750000   0.5500000), wk =   0.0392157
        k(   14) = (   0.4625000   0.1125000   0.5750000), wk =   0.0392157
        k(   15) = (   0.4500000   0.1500000   0.6000000), wk =   0.0392157
        k(   16) = (   0.4375000   0.1875000   0.6250000), wk =   0.0392157
        k(   17) = (   0.4250000   0.2250000   0.6500000), wk =   0.0392157
        k(   18) = (   0.4125000   0.2625000   0.6750000), wk =   0.0392157
        k(   19) = (   0.4000000   0.3000000   0.7000000), wk =   0.0392157
        k(   20) = (   0.3875000   0.3375000   0.7250000), wk =   0.0392157
        k(   21) = (   0.3750000   0.3750000   0.7500000), wk =   0.0392157
        k(   22) = (   0.3375000   0.3375000   0.6750000), wk =   0.0392157
        k(   23) = (   0.3000000   0.3000000   0.6000000), wk =   0.0392157
        k(   24) = (   0.2625000   0.2625000   0.5250000), wk =   0.0392157
        k(   25) = (   0.2250000   0.2250000   0.4500000), wk =   0.0392157
        k(   26) = (   0.1875000   0.1875000   0.3750000), wk =   0.0392157
        k(   27) = (   0.1500000   0.1500000   0.3000000), wk =   0.0392157
        k(   28) = (   0.1125000   0.1125000   0.2250000), wk =   0.0392157
        k(   29) = (   0.0750000   0.0750000   0.1500000), wk =   0.0392157
        k(   30) = (   0.0375000   0.0375000   0.0750000), wk =   0.0392157
        k(   31) = (   0.0000000   0.0000000   0.0000000), wk =   0.0392157
        k(   32) = (   0.0500000   0.0500000   0.0500000), wk =   0.0392157
        k(   33) = (   0.1000000   0.1000000   0.1000000), wk =   0.0392157
        k(   34) = (   0.1500000   0.1500000   0.1500000), wk =   0.0392157
        k(   35) = (   0.2000000   0.2000000   0.2000000), wk =   0.0392157
        k(   36) = (   0.2500000   0.2500000   0.2500000), wk =   0.0392157
        k(   37) = (   0.3000000   0.3000000   0.3000000), wk =   0.0392157
        k(   38) = (   0.3500000   0.3500000   0.3500000), wk =   0.0392157
        k(   39) = (   0.4000000   0.4000000   0.4000000), wk =   0.0392157
        k(   40) = (   0.4500000   0.4500000   0.4500000), wk =   0.0392157
        k(   41) = (   0.5000000   0.5000000   0.5000000), wk =   0.0392157
        k(   42) = (   0.4750000   0.4750000   0.4750000), wk =   0.0392157
        k(   43) = (   0.4500000   0.4500000   0.4500000), wk =   0.0392157
        k(   44) = (   0.4250000   0.4250000   0.4250000), wk =   0.0392157
        k(   45) = (   0.4000000   0.4000000   0.4000000), wk =   0.0392157
        k(   46) = (   0.3750000   0.3750000   0.3750000), wk =   0.0392157
        k(   47) = (   0.3500000   0.3500000   0.3500000), wk =   0.0392157
        k(   48) = (   0.3250000   0.3250000   0.3250000), wk =   0.0392157
        k(   49) = (   0.3000000   0.3000000   0.3000000), wk =   0.0392157
        k(   50) = (   0.2750000   0.2750000   0.2750000), wk =   0.0392157
        k(   51) = (   0.2500000   0.2500000   0.2500000), wk =   0.0392157

                       cryst. coord.
        k(    1) = (   0.0000000   0.0000000   0.0000000), wk =   0.0392157
        k(    2) = (   0.0000000   0.0250000  -0.0250000), wk =   0.0392157
        k(    3) = (   0.0000000   0.0500000  -0.0500000), wk =   0.0392157
        k(    4) = (   0.0000000   0.0750000  -0.0750000), wk =   0.0392157
        k(    5) = (   0.0000000   0.1000000  -0.1000000), wk =   0.0392157
        k(    6) = (   0.0000000   0.1250000  -0.1250000), wk =   0.0392157
        k(    7) = (   0.0000000   0.1500000  -0.1500000), wk =   0.0392157
        k(    8) = (   0.0000000   0.1750000  -0.1750000), wk =   0.0392157
        k(    9) = (   0.0000000   0.2000000  -0.2000000), wk =   0.0392157
        k(   10) = (   0.0000000   0.2250000  -0.2250000), wk =   0.0392157
        k(   11) = (   0.0000000   0.2500000  -0.2500000), wk =   0.0392157
        k(   12) = (   0.0187500   0.2812500  -0.2250000), wk =   0.0392157
        k(   13) = (   0.0375000   0.3125000  -0.2000000), wk =   0.0392157
        k(   14) = (   0.0562500   0.3437500  -0.1750000), wk =   0.0392157
        k(   15) = (   0.0750000   0.3750000  -0.1500000), wk =   0.0392157
        k(   16) = (   0.0937500   0.4062500  -0.1250000), wk =   0.0392157
        k(   17) = (   0.1125000   0.4375000  -0.1000000), wk =   0.0392157
        k(   18) = (   0.1312500   0.4687500  -0.0750000), wk =   0.0392157
        k(   19) = (   0.1500000   0.5000000  -0.0500000), wk =   0.0392157
        k(   20) = (   0.1687500   0.5312500  -0.0250000), wk =   0.0392157
        k(   21) = (   0.1875000   0.5625000   0.0000000), wk =   0.0392157
        k(   22) = (   0.1687500   0.5062500   0.0000000), wk =   0.0392157
        k(   23) = (   0.1500000   0.4500000   0.0000000), wk =   0.0392157
        k(   24) = (   0.1312500   0.3937500   0.0000000), wk =   0.0392157
        k(   25) = (   0.1125000   0.3375000   0.0000000), wk =   0.0392157
        k(   26) = (   0.0937500   0.2812500   0.0000000), wk =   0.0392157
        k(   27) = (   0.0750000   0.2250000   0.0000000), wk =   0.0392157
        k(   28) = (   0.0562500   0.1687500   0.0000000), wk =   0.0392157
        k(   29) = (   0.0375000   0.1125000   0.0000000), wk =   0.0392157
        k(   30) = (   0.0187500   0.0562500   0.0000000), wk =   0.0392157
        k(   31) = (   0.0000000   0.0000000   0.0000000), wk =   0.0392157
        k(   32) = (   0.0000000   0.0500000   0.0000000), wk =   0.0392157
        k(   33) = (   0.0000000   0.1000000   0.0000000), wk =   0.0392157
        k(   34) = (   0.0000000   0.1500000   0.0000000), wk =   0.0392157
        k(   35) = (   0.0000000   0.2000000   0.0000000), wk =   0.0392157
        k(   36) = (   0.0000000   0.2500000   0.0000000), wk =   0.0392157
        k(   37) = (   0.0000000   0.3000000   0.0000000), wk =   0.0392157
        k(   38) = (   0.0000000   0.3500000   0.0000000), wk =   0.0392157
        k(   39) = (   0.0000000   0.4000000   0.0000000), wk =   0.0392157
        k(   40) = (   0.0000000   0.4500000   0.0000000), wk =   0.0392157
        k(   41) = (   0.0000000   0.5000000   0.0000000), wk =   0.0392157
        k(   42) = (   0.0000000   0.4750000   0.0000000), wk =   0.0392157
        k(   43) = (   0.0000000   0.4500000   0.0000000), wk =   0.0392157
        k(   44) = (   0.0000000   0.4250000   0.0000000), wk =   0.0392157
        k(   45) = (   0.0000000   0.4000000   0.0000000), wk =   0.0392157
        k(   46) = (   0.0000000   0.3750000   0.0000000), wk =   0.0392157
        k(   47) = (   0.0000000   0.3500000   0.0000000), wk =   0.0392157
        k(   48) = (   0.0000000   0.3250000   0.0000000), wk =   0.0392157
        k(   49) = (   0.0000000   0.3000000   0.0000000), wk =   0.0392157
        k(   50) = (   0.0000000   0.2750000   0.0000000), wk =   0.0392157
        k(   51) = (   0.0000000   0.2500000   0.0000000), wk =   0.0392157

     Dense  grid:     3695 G-vectors     FFT dimensions: (  24,  24,  24)

     Dynamical RAM for                 wfc:       0.05 MB

     Dynamical RAM for     wfc (w. buffer):       0.05 MB

     Dynamical RAM for           str. fact:       0.03 MB

     Dynamical RAM for           local pot:       0.00 MB

     Dynamical RAM for          nlocal pot:       0.09 MB

     Dynamical RAM for                qrad:       0.32 MB

     Dynamical RAM for          rho,v,vnew:       0.24 MB

     Dynamical RAM for           G-vectors:       0.12 MB

     Dynamical RAM for          h,s,v(r/c):       0.01 MB

     Dynamical RAM for          <psi|beta>:       0.00 MB

     Dynamical RAM for                 psi:       0.09 MB

     Dynamical RAM for                hpsi:       0.09 MB

     Dynamical RAM for      wfcinit/wfcrot:       0.09 MB

     Estimated static dynamical RAM per process >       1.17 MB

     Estimated max dynamical RAM per process >       1.37 MB

     Estimated total dynamical RAM >       2.74 MB

     The potential is recalculated from file :
     ./diamond.save/charge-density

     Starting wfcs are random

     Band Structure Calculation
     Davidson diagonalization with overlap

     Computing kpt #:     1  of    51
     total cpu time spent up to now is        0.3 secs

     Computing kpt #:     2  of    51
     total cpu time spent up to now is        0.3 secs

     Computing kpt #:     3  of    51
     total cpu time spent up to now is        0.3 secs

     Computing kpt #:     4  of    51
     total cpu time spent up to now is        0.3 secs

     Computing kpt #:     5  of    51
     total cpu time spent up to now is        0.4 secs

     Computing kpt #:     6  of    51
     total cpu time spent up to now is        0.4 secs

     Computing kpt #:     7  of    51
     total cpu time spent up to now is        0.4 secs

     Computing kpt #:     8  of    51
     total cpu time spent up to now is        0.4 secs

     Computing kpt #:     9  of    51
     total cpu time spent up to now is        0.5 secs

     Computing kpt #:    10  of    51
     total cpu time spent up to now is        0.5 secs

     Computing kpt #:    11  of    51
     total cpu time spent up to now is        0.5 secs

     Computing kpt #:    12  of    51
     total cpu time spent up to now is        0.5 secs

     Computing kpt #:    13  of    51
     total cpu time spent up to now is        0.5 secs

     Computing kpt #:    14  of    51
     total cpu time spent up to now is        0.6 secs

     Computing kpt #:    15  of    51
     total cpu time spent up to now is        0.6 secs

     Computing kpt #:    16  of    51
     total cpu time spent up to now is        0.6 secs

     Computing kpt #:    17  of    51
     total cpu time spent up to now is        0.6 secs

     Computing kpt #:    18  of    51
     total cpu time spent up to now is        0.7 secs

     Computing kpt #:    19  of    51
     total cpu time spent up to now is        0.7 secs

     Computing kpt #:    20  of    51
     total cpu time spent up to now is        0.7 secs

     Computing kpt #:    21  of    51
     total cpu time spent up to now is        0.7 secs

     Computing kpt #:    22  of    51
     total cpu time spent up to now is        0.8 secs

     Computing kpt #:    23  of    51
     total cpu time spent up to now is        0.8 secs

     Computing kpt #:    24  of    51
     total cpu time spent up to now is        0.8 secs

     Computing kpt #:    25  of    51
     total cpu time spent up to now is        0.8 secs

     Computing kpt #:    26  of    51
     total cpu time spent up to now is        0.9 secs

     Computing kpt #:    27  of    51
     total cpu time spent up to now is        0.9 secs

     Computing kpt #:    28  of    51
     total cpu time spent up to now is        0.9 secs

     Computing kpt #:    29  of    51
     total cpu time spent up to now is        0.9 secs

     Computing kpt #:    30  of    51
     total cpu time spent up to now is        0.9 secs

     Computing kpt #:    31  of    51
     total cpu time spent up to now is        0.9 secs

     Computing kpt #:    32  of    51
     total cpu time spent up to now is        1.0 secs

     Computing kpt #:    33  of    51
     total cpu time spent up to now is        1.0 secs

     Computing kpt #:    34  of    51
     total cpu time spent up to now is        1.0 secs

     Computing kpt #:    35  of    51
     total cpu time spent up to now is        1.0 secs

     Computing kpt #:    36  of    51
     total cpu time spent up to now is        1.0 secs

     Computing kpt #:    37  of    51
     total cpu time spent up to now is        1.1 secs

     Computing kpt #:    38  of    51
     total cpu time spent up to now is        1.1 secs

     Computing kpt #:    39  of    51
     total cpu time spent up to now is        1.1 secs

     Computing kpt #:    40  of    51
     total cpu time spent up to now is        1.1 secs

     Computing kpt #:    41  of    51
     total cpu time spent up to now is        1.2 secs

     Computing kpt #:    42  of    51
     total cpu time spent up to now is        1.2 secs

     Computing kpt #:    43  of    51
     total cpu time spent up to now is        1.2 secs

     Computing kpt #:    44  of    51
     total cpu time spent up to now is        1.2 secs

     Computing kpt #:    45  of    51
     total cpu time spent up to now is        1.2 secs

     Computing kpt #:    46  of    51
     total cpu time spent up to now is        1.3 secs

     Computing kpt #:    47  of    51
     total cpu time spent up to now is        1.3 secs

     Computing kpt #:    48  of    51
     total cpu time spent up to now is        1.3 secs

     Computing kpt #:    49  of    51
     total cpu time spent up to now is        1.3 secs

     Computing kpt #:    50  of    51
     total cpu time spent up to now is        1.4 secs

     Computing kpt #:    51  of    51
     total cpu time spent up to now is        1.4 secs

     ethr =  1.25E-10,  avg # of iterations = 25.3

     total cpu time spent up to now is        1.4 secs

     End of band structure calculation

          k = 0.0000 0.0000 0.0000 (   749 PWs)   bands (ev):

    -8.1145  13.3408  13.3408  13.3408  18.9433  18.9433  18.9433  26.7195

     occupation numbers 
     1.0000   1.0000   1.0000   1.0000   0.0000   0.0000   0.0000   0.0000

          k = 0.0500 0.0000 0.0500 (   743 PWs)   bands (ev):

    -8.0683  13.0678  13.1465  13.3125  18.9905  19.0949  19.1695  26.7572

     occupation numbers 
     1.0000   1.0000   1.0000   1.0000   0.0000   0.0000   0.0000   0.0000

          k = 0.1000 0.0000 0.1000 (   737 PWs)   bands (ev):

    -7.9299  12.3681  12.6214  13.2262  19.1314  19.4970  19.7232  26.8605

     occupation numbers 
     1.0000   1.0000   1.0000   1.0000   0.0000   0.0000   0.0000   0.0000

          k = 0.1500 0.0000 0.1500 (   753 PWs)   bands (ev):

    -7.6997  11.4389  11.8785  13.0782  19.3642  20.0564  20.3894  26.9976

     occupation numbers 
     1.0000   1.0000   1.0000   1.0000   0.0000   0.0000   0.0000   0.0000

          k = 0.2000 0.0000 0.2000 (   763 PWs)   bands (ev):

    -7.3784  10.4141  11.0141  12.8643  19.6881  20.7076  21.0200  27.1162

     occupation numbers 
     1.0000   1.0000   1.0000   1.0000   0.0000   0.0000   0.0000   0.0000

          k = 0.2500 0.0000 0.2500 (   759 PWs)   bands (ev):

    -6.9669   9.3644  10.0926  12.5822  20.1012  21.4191  21.5310  27.1631

     occupation numbers 
     1.0000   1.0000   1.0000   1.0000   0.0000   0.0000   0.0000   0.0000

          k = 0.3000 0.0000 0.3000 (   753 PWs)   bands (ev):

    -6.4670   8.3277   9.1557  12.2321  20.6003  21.8735  22.1809  27.1259

     occupation numbers 
     1.0000   1.0000   1.0000   1.0000   0.0000   0.0000   0.0000   0.0000

          k = 0.3500 0.0000 0.3500 (   762 PWs)   bands (ev):

    -5.8807   7.3263   8.2319  11.8185  21.1810  22.0163  22.9905  27.0540

     occupation numbers 
     1.0000   1.0000   1.0000   1.0000   0.0000   0.0000   0.0000   0.0000

          k = 0.4000 0.0000 0.4000 (   766 PWs)   bands (ev):

    -5.2115   6.3747   7.3434  11.3533  21.8386  21.9500  23.8514  27.0269

     occupation numbers 
     1.0000   1.0000   1.0000   1.0000   0.0000   0.0000   0.0000   0.0000

          k = 0.4500 0.0000 0.4500 (   754 PWs)   bands (ev):

    -4.4645   5.4823   6.5075  10.8505  21.6968  22.5667  24.7632  27.0987

     occupation numbers 
     1.0000   1.0000   1.0000   1.0000   0.0000   0.0000   0.0000   0.0000

          k = 0.5000 0.0000 0.5000 (   754 PWs)   bands (ev):

    -3.6476   4.6552   5.7398  10.3273  21.3085  23.3554  25.7155  27.2754

     occupation numbers 
     1.0000   1.0000   1.0000   1.0000   0.0000   0.0000   0.0000   0.0000

          k = 0.4875 0.0375 0.5250 (   758 PWs)   bands (ev):

    -3.5237   4.3355   5.8816  10.2339  21.2995  23.3747  25.7630  27.3553

     occupation numbers 
     1.0000   1.0000   1.0000   1.0000   0.0000   0.0000   0.0000   0.0000

          k = 0.4750 0.0750 0.5500 (   762 PWs)   bands (ev):

    -3.3650   3.8119   6.2522  10.0899  21.3780  23.2330  25.7085  27.5000

     occupation numbers 
     1.0000   1.0000   1.0000   1.0000   0.0000   0.0000   0.0000   0.0000

          k = 0.4625 0.1125 0.5750 (   761 PWs)   bands (ev):

    -3.1730   3.2567   6.6764   9.9042  21.5287  22.9603  25.6394  27.6329

     occupation numbers 
     1.0000   1.0000   1.0000   1.0000   0.0000   0.0000   0.0000   0.0000

          k = 0.4500 0.1500 0.6000 (   758 PWs)   bands (ev):

    -2.9502   2.7142   7.1015   9.6907  21.6971  22.6476  25.5931  27.7196

     occupation numbers 
     1.0000   1.0000   1.0000   1.0000   0.0000   0.0000   0.0000   0.0000

          k = 0.4375 0.1875 0.6250 (   760 PWs)   bands (ev):

    -2.7008   2.2020   7.4927   9.4713  21.6856  22.5394  25.5585  27.7677

     occupation numbers 
     1.0000   1.0000   1.0000   1.0000   0.0000   0.0000   0.0000   0.0000

          k = 0.4250 0.2250 0.6500 (   757 PWs)   bands (ev):

    -2.4318   1.7330   7.8019   9.2853  21.3907  22.7805  25.5085  27.8059

     occupation numbers 
     1.0000   1.0000   1.0000   1.0000   0.0000   0.0000   0.0000   0.0000

          k = 0.4125 0.2625 0.6750 (   752 PWs)   bands (ev):

    -2.1553   1.3225   7.9550   9.1969  21.0441  23.1673  25.4174  27.8663

     occupation numbers 
     1.0000   1.0000   1.0000   1.0000   0.0000   0.0000   0.0000   0.0000

          k = 0.4000 0.3000 0.7000 (   754 PWs)   bands (ev):

    -1.8935   0.9941   7.9073   9.2390  20.7600  23.5964  25.2768  27.9701

     occupation numbers 
     1.0000   1.0000   1.0000   1.0000   0.0000   0.0000   0.0000   0.0000

          k = 0.3875 0.3375 0.7250 (   758 PWs)   bands (ev):

    -1.6841   0.7862   7.7217   9.3370  20.5855  23.9968  25.1223  28.1207

     occupation numbers 
     1.0000   1.0000   1.0000   1.0000   0.0000   0.0000   0.0000   0.0000

          k = 0.3750 0.3750 0.7500 (   757 PWs)   bands (ev):

    -1.5753   0.7465   7.4778   9.4037  20.5461  24.1995  25.1113  28.2985

     occupation numbers 
     1.0000   1.0000   1.0000   1.0000   0.0000   0.0000   0.0000   0.0000

          k = 0.3375 0.3375 0.6750 (   752 PWs)   bands (ev):

    -2.2464   1.2315   8.2690   9.3683  20.4822  24.0942  24.6558  27.7071

     occupation numbers 
     1.0000   1.0000   1.0000   1.0000   0.0000   0.0000   0.0000   0.0000

          k = 0.3000 0.3000 0.6000 (   761 PWs)   bands (ev):

    -3.3278   2.3739   9.0808   9.4683  20.4554  23.8897  24.1645  27.1849

     occupation numbers 
     1.0000   1.0000   1.0000   1.0000   0.0000   0.0000   0.0000   0.0000

          k = 0.2625 0.2625 0.5250 (   764 PWs)   bands (ev):

    -4.3941   3.7481   9.7066   9.8850  20.4070  23.5773  23.6338  26.8876

     occupation numbers 
     1.0000   1.0000   1.0000   1.0000   0.0000   0.0000   0.0000   0.0000

          k = 0.2250 0.2250 0.4500 (   763 PWs)   bands (ev):

    -5.3562   5.2563  10.0805  10.6553  20.2800  23.0565  23.1264  26.8580

     occupation numbers 
     1.0000   1.0000   1.0000   1.0000   0.0000   0.0000   0.0000   0.0000

          k = 0.1875 0.1875 0.3750 (   765 PWs)   bands (ev):

    -6.1873   6.8538  10.5807  11.3690  20.0565  22.4203  22.5075  27.0094

     occupation numbers 
     1.0000   1.0000   1.0000   1.0000   0.0000   0.0000   0.0000   0.0000

          k = 0.1500 0.1500 0.3000 (   759 PWs)   bands (ev):

    -6.8758   8.4980  11.1891  12.0074  19.7669  21.7106  21.7223  27.1426

     occupation numbers 
     1.0000   1.0000   1.0000   1.0000   0.0000   0.0000   0.0000   0.0000

          k = 0.1125 0.1125 0.2250 (   763 PWs)   bands (ev):

    -7.4156  10.1292  11.8701  12.5500  19.4620  20.8253  20.9162  27.1056

     occupation numbers 
     1.0000   1.0000   1.0000   1.0000   0.0000   0.0000   0.0000   0.0000

          k = 0.0750 0.0750 0.1500 (   748 PWs)   bands (ev):

    -7.8033  11.6467  12.5558  12.9731  19.1946  19.9323  20.0641  26.9417

     occupation numbers 
     1.0000   1.0000   1.0000   1.0000   0.0000   0.0000   0.0000   0.0000

          k = 0.0375 0.0375 0.0750 (   741 PWs)   bands (ev):

    -8.0366  12.8462  13.1136  13.2460  19.0102  19.2248  19.2920  26.7823

     occupation numbers 
     1.0000   1.0000   1.0000   1.0000   0.0000   0.0000   0.0000   0.0000

          k = 0.0000 0.0000 0.0000 (   749 PWs)   bands (ev):

    -8.1145  13.3408  13.3408  13.3408  18.9433  18.9433  18.9433  26.7195

     occupation numbers 
     1.0000   1.0000   1.0000   1.0000   0.0000   0.0000   0.0000   0.0000

          k = 0.0500 0.0500 0.0500 (   743 PWs)   bands (ev):

    -8.0452  12.8581  13.2173  13.2173  19.1046  19.1046  19.2428  26.7773

     occupation numbers 
     1.0000   1.0000   1.0000   1.0000   0.0000   0.0000   0.0000   0.0000

          k = 0.1000 0.1000 0.1000 (   743 PWs)   bands (ev):

    -7.8378  11.6694  12.8947  12.8947  19.5295  19.5295  19.8901  26.9495

     occupation numbers 
     1.0000   1.0000   1.0000   1.0000   0.0000   0.0000   0.0000   0.0000

          k = 0.1500 0.1500 0.1500 (   764 PWs)   bands (ev):

    -7.4931  10.1391  12.4677  12.4677  20.0896  20.0896  20.5575  27.2277

     occupation numbers 
     1.0000   1.0000   1.0000   1.0000   0.0000   0.0000   0.0000   0.0000

          k = 0.2000 0.2000 0.2000 (   769 PWs)   bands (ev):

    -7.0128   8.4686  12.0173  12.0173  20.6593  20.6593  21.1096  27.5893

     occupation numbers 
     1.0000   1.0000   1.0000   1.0000   0.0000   0.0000   0.0000   0.0000

          k = 0.2500 0.2500 0.2500 (   757 PWs)   bands (ev):

    -6.3998   6.7599  11.5940  11.5940  21.1425  21.1425  21.5226  27.9923

     occupation numbers 
     1.0000   1.0000   1.0000   1.0000   0.0000   0.0000   0.0000   0.0000

          k = 0.3000 0.3000 0.3000 (   763 PWs)   bands (ev):

    -5.6592   5.0733  11.2254  11.2254  21.4858  21.4858  21.8161  28.3771

     occupation numbers 
     1.0000   1.0000   1.0000   1.0000   0.0000   0.0000   0.0000   0.0000

          k = 0.3500 0.3500 0.3500 (   763 PWs)   bands (ev):

    -4.8008   3.4526  10.9285  10.9285  21.6874  21.6874  22.0179  28.6901

     occupation numbers 
     1.0000   1.0000   1.0000   1.0000   0.0000   0.0000   0.0000   0.0000

          k = 0.4000 0.4000 0.4000 (   763 PWs)   bands (ev):

    -3.8485   1.9429  10.7123  10.7123  21.7821  21.7821  22.1492  28.9000

     occupation numbers 
     1.0000   1.0000   1.0000   1.0000   0.0000   0.0000   0.0000   0.0000

          k = 0.4500 0.4500 0.4500 (   766 PWs)   bands (ev):

    -2.8854   0.6407  10.5810  10.5810  21.8157  21.8157  22.2234  29.0106

     occupation numbers 
     1.0000   1.0000   1.0000   1.0000   0.0000   0.0000   0.0000   0.0000

          k = 0.5000 0.5000 0.5000 (   754 PWs)   bands (ev):

    -2.3346  -0.0238  10.5371  10.5371  21.8235  21.8235  22.2476  29.0438

     occupation numbers 
     1.0000   1.0000   1.0000   1.0000   0.0000   0.0000   0.0000   0.0000

          k = 0.4750 0.4750 0.4750 (   766 PWs)   bands (ev):

    -2.4988   0.1687  10.5481  10.5481  21.8213  21.8213  22.2415  29.0355

     occupation numbers 
     1.0000   1.0000   1.0000   1.0000   0.0000   0.0000   0.0000   0.0000

          k = 0.4500 0.4500 0.4500 (   766 PWs)   bands (ev):

    -2.8854   0.6407  10.5810  10.5810  21.8157  21.8157  22.2234  29.0106

     occupation numbers 
     1.0000   1.0000   1.0000   1.0000   0.0000   0.0000   0.0000   0.0000

          k = 0.4250 0.4250 0.4250 (   763 PWs)   bands (ev):

    -3.3570   1.2539  10.6359  10.6359  21.8040  21.8040  22.1930  28.9665

     occupation numbers 
     1.0000   1.0000   1.0000   1.0000   0.0000   0.0000   0.0000   0.0000

          k = 0.4000 0.4000 0.4000 (   763 PWs)   bands (ev):

    -3.8485   1.9429  10.7123  10.7123  21.7821  21.7821  22.1492  28.9000

     occupation numbers 
     1.0000   1.0000   1.0000   1.0000   0.0000   0.0000   0.0000   0.0000

          k = 0.3750 0.3750 0.3750 (   763 PWs)   bands (ev):

    -4.3338   2.6802  10.8100  10.8100  21.7452  21.7452  22.0913  28.8085

     occupation numbers 
     1.0000   1.0000   1.0000   1.0000   0.0000   0.0000   0.0000   0.0000

          k = 0.3500 0.3500 0.3500 (   763 PWs)   bands (ev):

    -4.8008   3.4526  10.9285  10.9285  21.6874  21.6874  22.0179  28.6901

     occupation numbers 
     1.0000   1.0000   1.0000   1.0000   0.0000   0.0000   0.0000   0.0000

          k = 0.3250 0.3250 0.3250 (   769 PWs)   bands (ev):

    -5.2438   4.2522  11.0672  11.0672  21.6025  21.6025  21.9268  28.5453

     occupation numbers 
     1.0000   1.0000   1.0000   1.0000   0.0000   0.0000   0.0000   0.0000

          k = 0.3000 0.3000 0.3000 (   763 PWs)   bands (ev):

    -5.6592   5.0733  11.2254  11.2254  21.4858  21.4858  21.8161  28.3771

     occupation numbers 
     1.0000   1.0000   1.0000   1.0000   0.0000   0.0000   0.0000   0.0000

          k = 0.2750 0.2750 0.2750 (   763 PWs)   bands (ev):

    -6.0450   5.9109  11.4014  11.4014  21.3328  21.3328  21.6824  28.1905

     occupation numbers 
     1.0000   1.0000   1.0000   1.0000   0.0000   0.0000   0.0000   0.0000

          k = 0.2500 0.2500 0.2500 (   757 PWs)   bands (ev):

    -6.3998   6.7599  11.5940  11.5940  21.1425  21.1425  21.5226  27.9923

     occupation numbers 
     1.0000   1.0000   1.0000   1.0000   0.0000   0.0000   0.0000   0.0000

     highest occupied, lowest unoccupied level (ev):    13.3408   18.9433

     Writing all to output data dir ./diamond.save/ :
     XML data file, pseudopotentials, collected wavefunctions

     init_run     :      0.20s CPU      0.23s WALL (       1 calls)
     electrons    :      1.00s CPU      1.12s WALL (       1 calls)

     Called by init_run:
     wfcinit      :      0.00s CPU      0.00s WALL (       1 calls)
     wfcinit:wfcr :      0.04s CPU      0.04s WALL (      51 calls)
     potinit      :      0.00s CPU      0.00s WALL (       1 calls)
     hinit0       :      0.19s CPU      0.19s WALL (       1 calls)

     Called by electrons:
     c_bands      :      1.00s CPU      1.10s WALL (       1 calls)
     v_of_rho     :      0.00s CPU      0.00s WALL (       1 calls)
     v_h          :      0.00s CPU      0.00s WALL (       1 calls)
     v_xc         :      0.00s CPU      0.00s WALL (       1 calls)

     Called by c_bands:
     init_us_2    :      0.00s CPU      0.00s WALL (      51 calls)
     cegterg      :      0.95s CPU      1.04s WALL (      94 calls)

     Called by sum_band:

     Called by *egterg:
     cdiaghg      :      0.15s CPU      0.16s WALL (    1341 calls)
     cegterg:over :      0.03s CPU      0.03s WALL (    1290 calls)
     cegterg:upda :      0.02s CPU      0.03s WALL (    1290 calls)
     cegterg:last :      0.03s CPU      0.03s WALL (    1065 calls)
     h_psi        :      0.73s CPU      0.80s WALL (    1435 calls)
     g_psi        :      0.01s CPU      0.01s WALL (    1290 calls)

     Called by h_psi:
     h_psi:calbec :      0.02s CPU      0.02s WALL (    1435 calls)
     vloc_psi     :      0.68s CPU      0.75s WALL (    1435 calls)
     add_vuspsi   :      0.02s CPU      0.02s WALL (    1435 calls)

     General routines
     calbec       :      0.02s CPU      0.02s WALL (    1435 calls)
     fft          :      0.18s CPU      0.18s WALL (      10 calls)
     fftw         :      0.58s CPU      0.64s WALL (   18312 calls)
     davcio       :      0.00s CPU      0.00s WALL (     102 calls)

     Parallel routines

     PWSCF        :      1.24s CPU      1.97s WALL


   This run was terminated on:   0:15:19   6Oct2024            

=------------------------------------------------------------------------------=
   JOB DONE.
=------------------------------------------------------------------------------=
