
     Program PWSCF v.7.3.1 starts on  6Oct2024 at  0:15:16 

     This program is part of the open-source Quantum ESPRESSO suite
     for quantum simulation of materials; please cite
         "P. Giannozzi et al., J. Phys.:Condens. Matter 21 395502 (2009);
         "P. Giannozzi et al., J. Phys.:Condens. Matter 29 465901 (2017);
         "P. Giannozzi et al., J. Chem. Phys. 152 154105 (2020);
          URL http://www.quantum-espresso.org", 
     in publications or presentations arising from this work. More details at
     http://www.quantum-espresso.org/quote

     Parallel version (MPI & OpenMP), running on       2 processor cores
     Number of MPI processes:                 2
     Threads/MPI process:                     1

     MPI processes distributed on     1 nodes
     507625 MiB available memory on the printing compute node when the environment starts

     Waiting for input...
     Reading input from standard input

     Current dimensions of program PWSCF are:
     Max number of different atomic species (ntypx) = 10
     Max number of k-points (npk) =  40000
     Max angular momentum in pseudopotentials (lmaxx) =  4
     Message from routine set_cutoff:
     ecutrho < 4*ecutwfc, are you sure?

     R & G space division:  proc/nbgrp/npool/nimage =       2
     Subspace diagonalization in iterative solution of the eigenvalue problem:
     a serial algorithm will be used


     Parallelization info
     --------------------
     sticks:   dense  smooth     PW     G-vecs:    dense   smooth      PW
     Min         156     156     75                 1847     1847     569
     Max         157     157     76                 1848     1848     570
     Sum         313     313    151                 3695     3695    1139

     Using Slab Decomposition



     bravais-lattice index     =            2
     lattice parameter (alat)  =       6.7370  a.u.
     unit-cell volume          =      76.4433 (a.u.)^3
     number of atoms/cell      =            2
     number of atomic types    =            1
     number of electrons       =         8.00
     number of Kohn-Sham states=            4
     kinetic-energy cutoff     =      70.0000  Ry
     charge density cutoff     =     200.0000  Ry
     scf convergence threshold =      1.0E-08
     mixing beta               =       0.7000
     number of iterations used =            8  plain     mixing
     Exchange-correlation= PBE
                           (   1   4   3   4   0   0   0)

     celldm(1)=   6.737000  celldm(2)=   0.000000  celldm(3)=   0.000000
     celldm(4)=   0.000000  celldm(5)=   0.000000  celldm(6)=   0.000000

     crystal axes: (cart. coord. in units of alat)
               a(1) = (  -0.500000   0.000000   0.500000 )  
               a(2) = (   0.000000   0.500000   0.500000 )  
               a(3) = (  -0.500000   0.500000   0.000000 )  

     reciprocal axes: (cart. coord. in units 2 pi/alat)
               b(1) = ( -1.000000 -1.000000  1.000000 )  
               b(2) = (  1.000000  1.000000  1.000000 )  
               b(3) = ( -1.000000  1.000000 -1.000000 )  


     PseudoPot. # 1 for C  read from file:
     ./C_ONCV_PBE-1.0.upf
     MD5 check sum: 40f8c33130f0afa4272e9dcc1c4fb0df
     Pseudo is Norm-conserving, Zval =  4.0
     Generated using ONCVPSP code by D. R. Hamann
     Using radial grid of  602 points,  4 beta functions with: 
                l(1) =   0
                l(2) =   0
                l(3) =   1
                l(4) =   1

     atomic species   valence    mass     pseudopotential
     C                 4.00    12.00000     C ( 1.00)

     48 Sym. Ops., with inversion, found (24 have fractional translation)


                                    s                        frac. trans.

      isym =  1     identity                                     

 cryst.   s( 1) = (     1          0          0      )
                  (     0          1          0      )
                  (     0          0          1      )

 cart.    s( 1) = (  1.0000000  0.0000000  0.0000000 )
                  (  0.0000000  1.0000000  0.0000000 )
                  (  0.0000000  0.0000000  1.0000000 )


      isym =  2     180 deg rotation - cart. axis [0,0,1]        

 cryst.   s( 2) = (     0          1         -1      )
                  (     1          0         -1      )
                  (     0          0         -1      )

 cart.    s( 2) = ( -1.0000000  0.0000000  0.0000000 )
                  (  0.0000000 -1.0000000  0.0000000 )
                  (  0.0000000  0.0000000  1.0000000 )


      isym =  3     180 deg rotation - cart. axis [0,1,0]        

 cryst.   s( 3) = (    -1          0          0      )
                  (    -1          0          1      )
                  (    -1          1          0      )

 cart.    s( 3) = ( -1.0000000  0.0000000  0.0000000 )
                  (  0.0000000  1.0000000  0.0000000 )
                  (  0.0000000  0.0000000 -1.0000000 )


      isym =  4     180 deg rotation - cart. axis [1,0,0]        

 cryst.   s( 4) = (     0         -1          1      )
                  (     0         -1          0      )
                  (     1         -1          0      )

 cart.    s( 4) = (  1.0000000  0.0000000  0.0000000 )
                  (  0.0000000 -1.0000000  0.0000000 )
                  (  0.0000000  0.0000000 -1.0000000 )


      isym =  5     180 deg rotation - cart. axis [1,1,0]        

 cryst.   s( 5) = (     0         -1          0      )    f =(  0.2500000 )
                  (    -1          0          0      )       (  0.2500000 )
                  (     0          0         -1      )       (  0.2500000 )

 cart.    s( 5) = (  0.0000000  1.0000000  0.0000000 )    f =( -0.2500000 )
                  (  1.0000000  0.0000000  0.0000000 )       (  0.2500000 )
                  (  0.0000000  0.0000000 -1.0000000 )       (  0.2500000 )


      isym =  6     180 deg rotation - cart. axis [1,-1,0]       

 cryst.   s( 6) = (    -1          0          1      )    f =(  0.2500000 )
                  (     0         -1          1      )       (  0.2500000 )
                  (     0          0          1      )       (  0.2500000 )

 cart.    s( 6) = (  0.0000000 -1.0000000  0.0000000 )    f =( -0.2500000 )
                  ( -1.0000000  0.0000000  0.0000000 )       (  0.2500000 )
                  (  0.0000000  0.0000000 -1.0000000 )       (  0.2500000 )


      isym =  7      90 deg rotation - cart. axis [0,0,-1]       

 cryst.   s( 7) = (     0          1          0      )    f =(  0.2500000 )
                  (     0          1         -1      )       (  0.2500000 )
                  (    -1          1          0      )       (  0.2500000 )

 cart.    s( 7) = (  0.0000000  1.0000000  0.0000000 )    f =( -0.2500000 )
                  ( -1.0000000  0.0000000  0.0000000 )       (  0.2500000 )
                  (  0.0000000  0.0000000  1.0000000 )       (  0.2500000 )


      isym =  8      90 deg rotation - cart. axis [0,0,1]        

 cryst.   s( 8) = (     1          0         -1      )    f =(  0.2500000 )
                  (     1          0          0      )       (  0.2500000 )
                  (     1         -1          0      )       (  0.2500000 )

 cart.    s( 8) = (  0.0000000 -1.0000000  0.0000000 )    f =( -0.2500000 )
                  (  1.0000000  0.0000000  0.0000000 )       (  0.2500000 )
                  (  0.0000000  0.0000000  1.0000000 )       (  0.2500000 )


      isym =  9     180 deg rotation - cart. axis [1,0,1]        

 cryst.   s( 9) = (    -1          0          0      )    f =(  0.2500000 )
                  (     0          0         -1      )       (  0.2500000 )
                  (     0         -1          0      )       (  0.2500000 )

 cart.    s( 9) = (  0.0000000  0.0000000  1.0000000 )    f =( -0.2500000 )
                  (  0.0000000 -1.0000000  0.0000000 )       (  0.2500000 )
                  (  1.0000000  0.0000000  0.0000000 )       (  0.2500000 )


      isym = 10     180 deg rotation - cart. axis [-1,0,1]       

 cryst.   s(10) = (     1          0          0      )    f =(  0.2500000 )
                  (     1         -1          0      )       (  0.2500000 )
                  (     1          0         -1      )       (  0.2500000 )

 cart.    s(10) = (  0.0000000  0.0000000 -1.0000000 )    f =( -0.2500000 )
                  (  0.0000000 -1.0000000  0.0000000 )       (  0.2500000 )
                  ( -1.0000000  0.0000000  0.0000000 )       (  0.2500000 )


      isym = 11      90 deg rotation - cart. axis [0,1,0]        

 cryst.   s(11) = (     0          1         -1      )    f =(  0.2500000 )
                  (    -1          1          0      )       (  0.2500000 )
                  (     0          1          0      )       (  0.2500000 )

 cart.    s(11) = (  0.0000000  0.0000000  1.0000000 )    f =( -0.2500000 )
                  (  0.0000000  1.0000000  0.0000000 )       (  0.2500000 )
                  ( -1.0000000  0.0000000  0.0000000 )       (  0.2500000 )


      isym = 12      90 deg rotation - cart. axis [0,-1,0]       

 cryst.   s(12) = (     0         -1          1      )    f =(  0.2500000 )
                  (     0          0          1      )       (  0.2500000 )
                  (    -1          0          1      )       (  0.2500000 )

 cart.    s(12) = (  0.0000000  0.0000000 -1.0000000 )    f =( -0.2500000 )
                  (  0.0000000  1.0000000  0.0000000 )       (  0.2500000 )
                  (  1.0000000  0.0000000  0.0000000 )       (  0.2500000 )


      isym = 13     180 deg rotation - cart. axis [0,1,1]        

 cryst.   s(13) = (    -1          1          0      )    f =(  0.2500000 )
                  (     0          1          0      )       (  0.2500000 )
                  (     0          1         -1      )       (  0.2500000 )

 cart.    s(13) = ( -1.0000000  0.0000000  0.0000000 )    f =( -0.2500000 )
                  (  0.0000000  0.0000000  1.0000000 )       (  0.2500000 )
                  (  0.0000000  1.0000000  0.0000000 )       (  0.2500000 )


      isym = 14     180 deg rotation - cart. axis [0,1,-1]       

 cryst.   s(14) = (     0          0         -1      )    f =(  0.2500000 )
                  (     0         -1          0      )       (  0.2500000 )
                  (    -1          0          0      )       (  0.2500000 )

 cart.    s(14) = ( -1.0000000  0.0000000  0.0000000 )    f =( -0.2500000 )
                  (  0.0000000  0.0000000 -1.0000000 )       (  0.2500000 )
                  (  0.0000000 -1.0000000  0.0000000 )       (  0.2500000 )


      isym = 15      90 deg rotation - cart. axis [-1,0,0]       

 cryst.   s(15) = (     0          0          1      )    f =(  0.2500000 )
                  (    -1          0          1      )       (  0.2500000 )
                  (     0         -1          1      )       (  0.2500000 )

 cart.    s(15) = (  1.0000000  0.0000000  0.0000000 )    f =( -0.2500000 )
                  (  0.0000000  0.0000000  1.0000000 )       (  0.2500000 )
                  (  0.0000000 -1.0000000  0.0000000 )       (  0.2500000 )


      isym = 16      90 deg rotation - cart. axis [1,0,0]        

 cryst.   s(16) = (     1         -1          0      )    f =(  0.2500000 )
                  (     1          0         -1      )       (  0.2500000 )
                  (     1          0          0      )       (  0.2500000 )

 cart.    s(16) = (  1.0000000  0.0000000  0.0000000 )    f =( -0.2500000 )
                  (  0.0000000  0.0000000 -1.0000000 )       (  0.2500000 )
                  (  0.0000000  1.0000000  0.0000000 )       (  0.2500000 )


      isym = 17     120 deg rotation - cart. axis [-1,-1,-1]     

 cryst.   s(17) = (    -1          0          1      )
                  (    -1          1          0      )
                  (    -1          0          0      )

 cart.    s(17) = (  0.0000000  1.0000000  0.0000000 )
                  (  0.0000000  0.0000000  1.0000000 )
                  (  1.0000000  0.0000000  0.0000000 )


      isym = 18     120 deg rotation - cart. axis [-1,1,1]       

 cryst.   s(18) = (     0          1          0      )
                  (     0          0          1      )
                  (     1          0          0      )

 cart.    s(18) = (  0.0000000 -1.0000000  0.0000000 )
                  (  0.0000000  0.0000000  1.0000000 )
                  ( -1.0000000  0.0000000  0.0000000 )


      isym = 19     120 deg rotation - cart. axis [1,1,-1]       

 cryst.   s(19) = (     1          0         -1      )
                  (     0          0         -1      )
                  (     0          1         -1      )

 cart.    s(19) = (  0.0000000  1.0000000  0.0000000 )
                  (  0.0000000  0.0000000 -1.0000000 )
                  ( -1.0000000  0.0000000  0.0000000 )


      isym = 20     120 deg rotation - cart. axis [1,-1,1]       

 cryst.   s(20) = (     0         -1          0      )
                  (     1         -1          0      )
                  (     0         -1          1      )

 cart.    s(20) = (  0.0000000 -1.0000000  0.0000000 )
                  (  0.0000000  0.0000000 -1.0000000 )
                  (  1.0000000  0.0000000  0.0000000 )


      isym = 21     120 deg rotation - cart. axis [1,1,1]        

 cryst.   s(21) = (     0          0         -1      )
                  (     0          1         -1      )
                  (     1          0         -1      )

 cart.    s(21) = (  0.0000000  0.0000000  1.0000000 )
                  (  1.0000000  0.0000000  0.0000000 )
                  (  0.0000000  1.0000000  0.0000000 )


      isym = 22     120 deg rotation - cart. axis [-1,1,-1]      

 cryst.   s(22) = (    -1          1          0      )
                  (    -1          0          0      )
                  (    -1          0          1      )

 cart.    s(22) = (  0.0000000  0.0000000  1.0000000 )
                  ( -1.0000000  0.0000000  0.0000000 )
                  (  0.0000000 -1.0000000  0.0000000 )


      isym = 23     120 deg rotation - cart. axis [1,-1,-1]      

 cryst.   s(23) = (     0          0          1      )
                  (     1          0          0      )
                  (     0          1          0      )

 cart.    s(23) = (  0.0000000  0.0000000 -1.0000000 )
                  ( -1.0000000  0.0000000  0.0000000 )
                  (  0.0000000  1.0000000  0.0000000 )


      isym = 24     120 deg rotation - cart. axis [-1,-1,1]      

 cryst.   s(24) = (     1         -1          0      )
                  (     0         -1          1      )
                  (     0         -1          0      )

 cart.    s(24) = (  0.0000000  0.0000000 -1.0000000 )
                  (  1.0000000  0.0000000  0.0000000 )
                  (  0.0000000 -1.0000000  0.0000000 )


      isym = 25     inversion                                    

 cryst.   s(25) = (    -1          0          0      )    f =(  0.2500000 )
                  (     0         -1          0      )       (  0.2500000 )
                  (     0          0         -1      )       (  0.2500000 )

 cart.    s(25) = ( -1.0000000  0.0000000  0.0000000 )    f =( -0.2500000 )
                  (  0.0000000 -1.0000000  0.0000000 )       (  0.2500000 )
                  (  0.0000000  0.0000000 -1.0000000 )       (  0.2500000 )


      isym = 26     inv. 180 deg rotation - cart. axis [0,0,1]   

 cryst.   s(26) = (     0         -1          1      )    f =(  0.2500000 )
                  (    -1          0          1      )       (  0.2500000 )
                  (     0          0          1      )       (  0.2500000 )

 cart.    s(26) = (  1.0000000  0.0000000  0.0000000 )    f =( -0.2500000 )
                  (  0.0000000  1.0000000  0.0000000 )       (  0.2500000 )
                  (  0.0000000  0.0000000 -1.0000000 )       (  0.2500000 )


      isym = 27     inv. 180 deg rotation - cart. axis [0,1,0]   

 cryst.   s(27) = (     1          0          0      )    f =(  0.2500000 )
                  (     1          0         -1      )       (  0.2500000 )
                  (     1         -1          0      )       (  0.2500000 )

 cart.    s(27) = (  1.0000000  0.0000000  0.0000000 )    f =( -0.2500000 )
                  (  0.0000000 -1.0000000  0.0000000 )       (  0.2500000 )
                  (  0.0000000  0.0000000  1.0000000 )       (  0.2500000 )


      isym = 28     inv. 180 deg rotation - cart. axis [1,0,0]   

 cryst.   s(28) = (     0          1         -1      )    f =(  0.2500000 )
                  (     0          1          0      )       (  0.2500000 )
                  (    -1          1          0      )       (  0.2500000 )

 cart.    s(28) = ( -1.0000000  0.0000000  0.0000000 )    f =( -0.2500000 )
                  (  0.0000000  1.0000000  0.0000000 )       (  0.2500000 )
                  (  0.0000000  0.0000000  1.0000000 )       (  0.2500000 )


      isym = 29     inv. 180 deg rotation - cart. axis [1,1,0]   

 cryst.   s(29) = (     0          1          0      )
                  (     1          0          0      )
                  (     0          0          1      )

 cart.    s(29) = (  0.0000000 -1.0000000  0.0000000 )
                  ( -1.0000000  0.0000000  0.0000000 )
                  (  0.0000000  0.0000000  1.0000000 )


      isym = 30     inv. 180 deg rotation - cart. axis [1,-1,0]  

 cryst.   s(30) = (     1          0         -1      )
                  (     0          1         -1      )
                  (     0          0         -1      )

 cart.    s(30) = (  0.0000000  1.0000000  0.0000000 )
                  (  1.0000000  0.0000000  0.0000000 )
                  (  0.0000000  0.0000000  1.0000000 )


      isym = 31     inv.  90 deg rotation - cart. axis [0,0,-1]  

 cryst.   s(31) = (     0         -1          0      )
                  (     0         -1          1      )
                  (     1         -1          0      )

 cart.    s(31) = (  0.0000000 -1.0000000  0.0000000 )
                  (  1.0000000  0.0000000  0.0000000 )
                  (  0.0000000  0.0000000 -1.0000000 )


      isym = 32     inv.  90 deg rotation - cart. axis [0,0,1]   

 cryst.   s(32) = (    -1          0          1      )
                  (    -1          0          0      )
                  (    -1          1          0      )

 cart.    s(32) = (  0.0000000  1.0000000  0.0000000 )
                  ( -1.0000000  0.0000000  0.0000000 )
                  (  0.0000000  0.0000000 -1.0000000 )


      isym = 33     inv. 180 deg rotation - cart. axis [1,0,1]   

 cryst.   s(33) = (     1          0          0      )
                  (     0          0          1      )
                  (     0          1          0      )

 cart.    s(33) = (  0.0000000  0.0000000 -1.0000000 )
                  (  0.0000000  1.0000000  0.0000000 )
                  ( -1.0000000  0.0000000  0.0000000 )


      isym = 34     inv. 180 deg rotation - cart. axis [-1,0,1]  

 cryst.   s(34) = (    -1          0          0      )
                  (    -1          1          0      )
                  (    -1          0          1      )

 cart.    s(34) = (  0.0000000  0.0000000  1.0000000 )
                  (  0.0000000  1.0000000  0.0000000 )
                  (  1.0000000  0.0000000  0.0000000 )


      isym = 35     inv.  90 deg rotation - cart. axis [0,1,0]   

 cryst.   s(35) = (     0         -1          1      )
                  (     1         -1          0      )
                  (     0         -1          0      )

 cart.    s(35) = (  0.0000000  0.0000000 -1.0000000 )
                  (  0.0000000 -1.0000000  0.0000000 )
                  (  1.0000000  0.0000000  0.0000000 )


      isym = 36     inv.  90 deg rotation - cart. axis [0,-1,0]  

 cryst.   s(36) = (     0          1         -1      )
                  (     0          0         -1      )
                  (     1          0         -1      )

 cart.    s(36) = (  0.0000000  0.0000000  1.0000000 )
                  (  0.0000000 -1.0000000  0.0000000 )
                  ( -1.0000000  0.0000000  0.0000000 )


      isym = 37     inv. 180 deg rotation - cart. axis [0,1,1]   

 cryst.   s(37) = (     1         -1          0      )
                  (     0         -1          0      )
                  (     0         -1          1      )

 cart.    s(37) = (  1.0000000  0.0000000  0.0000000 )
                  (  0.0000000  0.0000000 -1.0000000 )
                  (  0.0000000 -1.0000000  0.0000000 )


      isym = 38     inv. 180 deg rotation - cart. axis [0,1,-1]  

 cryst.   s(38) = (     0          0          1      )
                  (     0          1          0      )
                  (     1          0          0      )

 cart.    s(38) = (  1.0000000  0.0000000  0.0000000 )
                  (  0.0000000  0.0000000  1.0000000 )
                  (  0.0000000  1.0000000  0.0000000 )


      isym = 39     inv.  90 deg rotation - cart. axis [-1,0,0]  

 cryst.   s(39) = (     0          0         -1      )
                  (     1          0         -1      )
                  (     0          1         -1      )

 cart.    s(39) = ( -1.0000000  0.0000000  0.0000000 )
                  (  0.0000000  0.0000000 -1.0000000 )
                  (  0.0000000  1.0000000  0.0000000 )


      isym = 40     inv.  90 deg rotation - cart. axis [1,0,0]   

 cryst.   s(40) = (    -1          1          0      )
                  (    -1          0          1      )
                  (    -1          0          0      )

 cart.    s(40) = ( -1.0000000  0.0000000  0.0000000 )
                  (  0.0000000  0.0000000  1.0000000 )
                  (  0.0000000 -1.0000000  0.0000000 )


      isym = 41     inv. 120 deg rotation - cart. axis [-1,-1,-1]

 cryst.   s(41) = (     1          0         -1      )    f =(  0.2500000 )
                  (     1         -1          0      )       (  0.2500000 )
                  (     1          0          0      )       (  0.2500000 )

 cart.    s(41) = (  0.0000000 -1.0000000  0.0000000 )    f =( -0.2500000 )
                  (  0.0000000  0.0000000 -1.0000000 )       (  0.2500000 )
                  ( -1.0000000  0.0000000  0.0000000 )       (  0.2500000 )


      isym = 42     inv. 120 deg rotation - cart. axis [-1,1,1]  

 cryst.   s(42) = (     0         -1          0      )    f =(  0.2500000 )
                  (     0          0         -1      )       (  0.2500000 )
                  (    -1          0          0      )       (  0.2500000 )

 cart.    s(42) = (  0.0000000  1.0000000  0.0000000 )    f =( -0.2500000 )
                  (  0.0000000  0.0000000 -1.0000000 )       (  0.2500000 )
                  (  1.0000000  0.0000000  0.0000000 )       (  0.2500000 )


      isym = 43     inv. 120 deg rotation - cart. axis [1,1,-1]  

 cryst.   s(43) = (    -1          0          1      )    f =(  0.2500000 )
                  (     0          0          1      )       (  0.2500000 )
                  (     0         -1          1      )       (  0.2500000 )

 cart.    s(43) = (  0.0000000 -1.0000000  0.0000000 )    f =( -0.2500000 )
                  (  0.0000000  0.0000000  1.0000000 )       (  0.2500000 )
                  (  1.0000000  0.0000000  0.0000000 )       (  0.2500000 )


      isym = 44     inv. 120 deg rotation - cart. axis [1,-1,1]  

 cryst.   s(44) = (     0          1          0      )    f =(  0.2500000 )
                  (    -1          1          0      )       (  0.2500000 )
                  (     0          1         -1      )       (  0.2500000 )

 cart.    s(44) = (  0.0000000  1.0000000  0.0000000 )    f =( -0.2500000 )
                  (  0.0000000  0.0000000  1.0000000 )       (  0.2500000 )
                  ( -1.0000000  0.0000000  0.0000000 )       (  0.2500000 )


      isym = 45     inv. 120 deg rotation - cart. axis [1,1,1]   

 cryst.   s(45) = (     0          0          1      )    f =(  0.2500000 )
                  (     0         -1          1      )       (  0.2500000 )
                  (    -1          0          1      )       (  0.2500000 )

 cart.    s(45) = (  0.0000000  0.0000000 -1.0000000 )    f =( -0.2500000 )
                  ( -1.0000000  0.0000000  0.0000000 )       (  0.2500000 )
                  (  0.0000000 -1.0000000  0.0000000 )       (  0.2500000 )


      isym = 46     inv. 120 deg rotation - cart. axis [-1,1,-1] 

 cryst.   s(46) = (     1         -1          0      )    f =(  0.2500000 )
                  (     1          0          0      )       (  0.2500000 )
                  (     1          0         -1      )       (  0.2500000 )

 cart.    s(46) = (  0.0000000  0.0000000 -1.0000000 )    f =( -0.2500000 )
                  (  1.0000000  0.0000000  0.0000000 )       (  0.2500000 )
                  (  0.0000000  1.0000000  0.0000000 )       (  0.2500000 )


      isym = 47     inv. 120 deg rotation - cart. axis [1,-1,-1] 

 cryst.   s(47) = (     0          0         -1      )    f =(  0.2500000 )
                  (    -1          0          0      )       (  0.2500000 )
                  (     0         -1          0      )       (  0.2500000 )

 cart.    s(47) = (  0.0000000  0.0000000  1.0000000 )    f =( -0.2500000 )
                  (  1.0000000  0.0000000  0.0000000 )       (  0.2500000 )
                  (  0.0000000 -1.0000000  0.0000000 )       (  0.2500000 )


      isym = 48     inv. 120 deg rotation - cart. axis [-1,-1,1] 

 cryst.   s(48) = (    -1          1          0      )    f =(  0.2500000 )
                  (     0          1         -1      )       (  0.2500000 )
                  (     0          1          0      )       (  0.2500000 )

 cart.    s(48) = (  0.0000000  0.0000000  1.0000000 )    f =( -0.2500000 )
                  ( -1.0000000  0.0000000  0.0000000 )       (  0.2500000 )
                  (  0.0000000  1.0000000  0.0000000 )       (  0.2500000 )


     point group O_h (m-3m) 
     there are 10 classes
     the character table:

       E     8C3   3C2   6C4   6C2'  i     8S6   3s_h  6S4   6s_d 
A_1g   1.00  1.00  1.00  1.00  1.00  1.00  1.00  1.00  1.00  1.00
A_2g   1.00  1.00  1.00 -1.00 -1.00  1.00  1.00  1.00 -1.00 -1.00
E_g    2.00 -1.00  2.00  0.00  0.00  2.00 -1.00  2.00  0.00  0.00
T_1g   3.00  0.00 -1.00  1.00 -1.00  3.00  0.00 -1.00  1.00 -1.00
T_2g   3.00  0.00 -1.00 -1.00  1.00  3.00  0.00 -1.00 -1.00  1.00
A_1u   1.00  1.00  1.00  1.00  1.00 -1.00 -1.00 -1.00 -1.00 -1.00
A_2u   1.00  1.00  1.00 -1.00 -1.00 -1.00 -1.00 -1.00  1.00  1.00
E_u    2.00 -1.00  2.00  0.00  0.00 -2.00  1.00 -2.00  0.00  0.00
T_1u   3.00  0.00 -1.00  1.00 -1.00 -3.00  0.00  1.00 -1.00  1.00
T_2u   3.00  0.00 -1.00 -1.00  1.00 -3.00  0.00  1.00  1.00 -1.00

     the symmetry operations in each class and the name of the first element:

     E        1
          identity                                               
     8C3     17   19   20   18   24   21   22   23
          120 deg rotation - cart. axis [-1,-1,-1]               
     3C2      2    4    3
          180 deg rotation - cart. axis [0,0,1]                  
     6C4      7    8   15   16   12   11
           90 deg rotation - cart. axis [0,0,-1]                 
     6C2'     5    6   14   13   10    9
          180 deg rotation - cart. axis [1,1,0]                  
     i       25
          inversion                                              
     8S6     41   43   44   42   48   45   46   47
          inv. 120 deg rotation - cart. axis [-1,-1,-1]          
     3s_h    26   28   27
          inv. 180 deg rotation - cart. axis [0,0,1]             
     6S4     31   32   39   40   36   35
          inv.  90 deg rotation - cart. axis [0,0,-1]            
     6s_d    29   30   38   37   34   33
          inv. 180 deg rotation - cart. axis [1,1,0]             

   Cartesian axes

     site n.     atom                  positions (alat units)
         1        C      tau(   1) = (   0.0000000   0.0000000   0.0000000  )
         2        C      tau(   2) = (   0.2500000   0.2500000   0.2500000  )

   Crystallographic axes

     site n.     atom                  positions (cryst. coord.)
         1        C      tau(   1) = (  0.0000000  0.0000000  0.0000000  )
         2        C      tau(   2) = ( -0.2500000  0.7500000 -0.2500000  )

     number of k points=    29
                       cart. coord. in units 2pi/alat
        k(    1) = (   0.0000000   0.0000000   0.0000000), wk =   0.0039062
        k(    2) = (  -0.1250000   0.1250000  -0.1250000), wk =   0.0312500
        k(    3) = (  -0.2500000   0.2500000  -0.2500000), wk =   0.0312500
        k(    4) = (  -0.3750000   0.3750000  -0.3750000), wk =   0.0312500
        k(    5) = (   0.5000000  -0.5000000   0.5000000), wk =   0.0156250
        k(    6) = (   0.0000000   0.2500000   0.0000000), wk =   0.0234375
        k(    7) = (  -0.1250000   0.3750000  -0.1250000), wk =   0.0937500
        k(    8) = (  -0.2500000   0.5000000  -0.2500000), wk =   0.0937500
        k(    9) = (   0.6250000  -0.3750000   0.6250000), wk =   0.0937500
        k(   10) = (   0.5000000  -0.2500000   0.5000000), wk =   0.0937500
        k(   11) = (   0.3750000  -0.1250000   0.3750000), wk =   0.0937500
        k(   12) = (   0.2500000   0.0000000   0.2500000), wk =   0.0468750
        k(   13) = (   0.0000000   0.5000000   0.0000000), wk =   0.0234375
        k(   14) = (  -0.1250000   0.6250000  -0.1250000), wk =   0.0937500
        k(   15) = (   0.7500000  -0.2500000   0.7500000), wk =   0.0937500
        k(   16) = (   0.6250000  -0.1250000   0.6250000), wk =   0.0937500
        k(   17) = (   0.5000000   0.0000000   0.5000000), wk =   0.0468750
        k(   18) = (   0.0000000   0.7500000   0.0000000), wk =   0.0234375
        k(   19) = (   0.8750000  -0.1250000   0.8750000), wk =   0.0937500
        k(   20) = (   0.7500000   0.0000000   0.7500000), wk =   0.0468750
        k(   21) = (   0.0000000  -1.0000000   0.0000000), wk =   0.0117188
        k(   22) = (  -0.2500000   0.5000000   0.0000000), wk =   0.0937500
        k(   23) = (   0.6250000  -0.3750000   0.8750000), wk =   0.1875000
        k(   24) = (   0.5000000  -0.2500000   0.7500000), wk =   0.0937500
        k(   25) = (   0.7500000  -0.2500000   1.0000000), wk =   0.0937500
        k(   26) = (   0.6250000  -0.1250000   0.8750000), wk =   0.1875000
        k(   27) = (   0.5000000   0.0000000   0.7500000), wk =   0.0937500
        k(   28) = (  -0.2500000  -1.0000000   0.0000000), wk =   0.0468750
        k(   29) = (  -0.5000000  -1.0000000   0.0000000), wk =   0.0234375

                       cryst. coord.
        k(    1) = (   0.0000000   0.0000000   0.0000000), wk =   0.0039062
        k(    2) = (   0.0000000   0.0000000   0.1250000), wk =   0.0312500
        k(    3) = (   0.0000000   0.0000000   0.2500000), wk =   0.0312500
        k(    4) = (   0.0000000   0.0000000   0.3750000), wk =   0.0312500
        k(    5) = (   0.0000000   0.0000000  -0.5000000), wk =   0.0156250
        k(    6) = (   0.0000000   0.1250000   0.1250000), wk =   0.0234375
        k(    7) = (   0.0000000   0.1250000   0.2500000), wk =   0.0937500
        k(    8) = (   0.0000000   0.1250000   0.3750000), wk =   0.0937500
        k(    9) = (   0.0000000   0.1250000  -0.5000000), wk =   0.0937500
        k(   10) = (   0.0000000   0.1250000  -0.3750000), wk =   0.0937500
        k(   11) = (   0.0000000   0.1250000  -0.2500000), wk =   0.0937500
        k(   12) = (   0.0000000   0.1250000  -0.1250000), wk =   0.0468750
        k(   13) = (   0.0000000   0.2500000   0.2500000), wk =   0.0234375
        k(   14) = (   0.0000000   0.2500000   0.3750000), wk =   0.0937500
        k(   15) = (   0.0000000   0.2500000  -0.5000000), wk =   0.0937500
        k(   16) = (   0.0000000   0.2500000  -0.3750000), wk =   0.0937500
        k(   17) = (   0.0000000   0.2500000  -0.2500000), wk =   0.0468750
        k(   18) = (   0.0000000   0.3750000   0.3750000), wk =   0.0234375
        k(   19) = (   0.0000000   0.3750000  -0.5000000), wk =   0.0937500
        k(   20) = (   0.0000000   0.3750000  -0.3750000), wk =   0.0468750
        k(   21) = (   0.0000000  -0.5000000  -0.5000000), wk =   0.0117188
        k(   22) = (   0.1250000   0.2500000   0.3750000), wk =   0.0937500
        k(   23) = (   0.1250000   0.2500000  -0.5000000), wk =   0.1875000
        k(   24) = (   0.1250000   0.2500000  -0.3750000), wk =   0.0937500
        k(   25) = (   0.1250000   0.3750000  -0.5000000), wk =   0.0937500
        k(   26) = (   0.1250000   0.3750000  -0.3750000), wk =   0.1875000
        k(   27) = (   0.1250000   0.3750000  -0.2500000), wk =   0.0937500
        k(   28) = (   0.1250000  -0.5000000  -0.3750000), wk =   0.0468750
        k(   29) = (   0.2500000  -0.5000000  -0.2500000), wk =   0.0234375

     Dense  grid:     3695 G-vectors     FFT dimensions: (  24,  24,  24)

     Dynamical RAM for                 wfc:       0.02 MB

     Dynamical RAM for     wfc (w. buffer):       0.69 MB

     Dynamical RAM for           str. fact:       0.03 MB

     Dynamical RAM for           local pot:       0.00 MB

     Dynamical RAM for          nlocal pot:       0.09 MB

     Dynamical RAM for                qrad:       0.32 MB

     Dynamical RAM for          rho,v,vnew:       0.24 MB

     Dynamical RAM for               rhoin:       0.08 MB

     Dynamical RAM for            rho*nmix:       0.45 MB

     Dynamical RAM for           G-vectors:       0.12 MB

     Dynamical RAM for          h,s,v(r/c):       0.00 MB

     Dynamical RAM for          <psi|beta>:       0.00 MB

     Dynamical RAM for                 psi:       0.05 MB

     Dynamical RAM for                hpsi:       0.05 MB

     Dynamical RAM for      wfcinit/wfcrot:       0.05 MB

     Estimated static dynamical RAM per process >       1.90 MB

     Estimated max dynamical RAM per process >       2.45 MB

     Estimated total dynamical RAM >       4.90 MB

     Initial potential from superposition of free atoms

     starting charge       7.9861, renormalised to       8.0000
     Starting wfcs are random

     total cpu time spent up to now is        0.3 secs

     per-process dynamical memory:    18.9 Mb

     Self-consistent Calculation

     iteration #  1     ecut=    70.00 Ry     beta= 0.70
     Davidson diagonalization with overlap

---- Real-time Memory Report at c_bands before calling an iterative solver
           180 MiB given to the printing process from OS
            18 MiB allocation reported by mallinfo(arena+hblkhd)
        507604 MiB available memory on the node where the printing process lives
------------------
     ethr =  1.00E-02,  avg # of iterations =  8.0

     total cpu time spent up to now is        0.4 secs

     total energy              =     -22.76374468 Ry
     estimated scf accuracy    <       0.11027683 Ry

     iteration #  2     ecut=    70.00 Ry     beta= 0.70
     Davidson diagonalization with overlap

---- Real-time Memory Report at c_bands before calling an iterative solver
           181 MiB given to the printing process from OS
            27 MiB allocation reported by mallinfo(arena+hblkhd)
        507604 MiB available memory on the node where the printing process lives
------------------
     ethr =  1.38E-03,  avg # of iterations =  2.3

     total cpu time spent up to now is        0.4 secs

     total energy              =     -22.78402133 Ry
     estimated scf accuracy    <       0.00306559 Ry

     iteration #  3     ecut=    70.00 Ry     beta= 0.70
     Davidson diagonalization with overlap

---- Real-time Memory Report at c_bands before calling an iterative solver
           181 MiB given to the printing process from OS
            27 MiB allocation reported by mallinfo(arena+hblkhd)
        507604 MiB available memory on the node where the printing process lives
------------------
     ethr =  3.83E-05,  avg # of iterations =  4.7

     total cpu time spent up to now is        0.5 secs

     total energy              =     -22.78687614 Ry
     estimated scf accuracy    <       0.00004850 Ry

     iteration #  4     ecut=    70.00 Ry     beta= 0.70
     Davidson diagonalization with overlap

---- Real-time Memory Report at c_bands before calling an iterative solver
           181 MiB given to the printing process from OS
            27 MiB allocation reported by mallinfo(arena+hblkhd)
        507604 MiB available memory on the node where the printing process lives
------------------
     ethr =  6.06E-07,  avg # of iterations =  5.0

     total cpu time spent up to now is        0.6 secs

     total energy              =     -22.78696531 Ry
     estimated scf accuracy    <       0.00000171 Ry

     iteration #  5     ecut=    70.00 Ry     beta= 0.70
     Davidson diagonalization with overlap

---- Real-time Memory Report at c_bands before calling an iterative solver
           181 MiB given to the printing process from OS
            28 MiB allocation reported by mallinfo(arena+hblkhd)
        507604 MiB available memory on the node where the printing process lives
------------------
     ethr =  2.14E-08,  avg # of iterations =  3.9

     total cpu time spent up to now is        0.7 secs

     total energy              =     -22.78696636 Ry
     estimated scf accuracy    <       0.00000001 Ry

     iteration #  6     ecut=    70.00 Ry     beta= 0.70
     Davidson diagonalization with overlap

---- Real-time Memory Report at c_bands before calling an iterative solver
           181 MiB given to the printing process from OS
            28 MiB allocation reported by mallinfo(arena+hblkhd)
        507604 MiB available memory on the node where the printing process lives
------------------
     ethr =  1.56E-10,  avg # of iterations =  5.0

     total cpu time spent up to now is        0.8 secs

     End of self-consistent calculation

          k = 0.0000 0.0000 0.0000 (   749 PWs)   bands (ev):

    -8.1144  13.3410  13.3410  13.3410

     occupation numbers 
     1.0000   1.0000   1.0000   1.0000

          k =-0.1250 0.1250-0.1250 (   746 PWs)   bands (ev):

    -7.6824  10.9314  12.6890  12.6890

     occupation numbers 
     1.0000   1.0000   1.0000   1.0000

          k =-0.2500 0.2500-0.2500 (   757 PWs)   bands (ev):

    -6.3997   6.7600  11.5941  11.5941

     occupation numbers 
     1.0000   1.0000   1.0000   1.0000

          k =-0.3750 0.3750-0.3750 (   763 PWs)   bands (ev):

    -4.3336   2.6804  10.8102  10.8102

     occupation numbers 
     1.0000   1.0000   1.0000   1.0000

          k = 0.5000-0.5000 0.5000 (   754 PWs)   bands (ev):

    -2.3345  -0.0237  10.5373  10.5373

     occupation numbers 
     1.0000   1.0000   1.0000   1.0000

          k = 0.0000 0.2500 0.0000 (   761 PWs)   bands (ev):

    -7.5386  11.6166  11.6166  12.0208

     occupation numbers 
     1.0000   1.0000   1.0000   1.0000

          k =-0.1250 0.3750-0.1250 (   765 PWs)   bands (ev):

    -6.5398   8.2614  10.4653  11.3132

     occupation numbers 
     1.0000   1.0000   1.0000   1.0000

          k =-0.2500 0.5000-0.2500 (   775 PWs)   bands (ev):

    -4.7282   4.2386   9.8164  10.1465

     occupation numbers 
     1.0000   1.0000   1.0000   1.0000

          k = 0.6250-0.3750 0.6250 (   759 PWs)   bands (ev):

    -2.3932   0.7981   9.1942   9.8143

     occupation numbers 
     1.0000   1.0000   1.0000   1.0000

          k = 0.5000-0.2500 0.5000 (   756 PWs)   bands (ev):

    -3.1649   1.8037   8.7635  10.4297

     occupation numbers 
     1.0000   1.0000   1.0000   1.0000

          k = 0.3750-0.1250 0.3750 (   757 PWs)   bands (ev):

    -5.4179   5.5882   8.9802  11.5000

     occupation numbers 
     1.0000   1.0000   1.0000   1.0000

          k = 0.2500 0.0000 0.2500 (   759 PWs)   bands (ev):

    -6.9668   9.3645  10.0928  12.5824

     occupation numbers 
     1.0000   1.0000   1.0000   1.0000

          k = 0.0000 0.5000 0.0000 (   769 PWs)   bands (ev):

    -5.8307   8.8389   9.2184   9.2184

     occupation numbers 
     1.0000   1.0000   1.0000   1.0000

          k =-0.1250 0.6250-0.1250 (   760 PWs)   bands (ev):

    -4.3008   5.8370   8.1244   8.4877

     occupation numbers 
     1.0000   1.0000   1.0000   1.0000

          k = 0.7500-0.2500 0.7500 (   758 PWs)   bands (ev):

    -2.0927   2.5685   6.6086   8.4621

     occupation numbers 
     1.0000   1.0000   1.0000   1.0000

          k = 0.6250-0.1250 0.6250 (   757 PWs)   bands (ev):

    -1.3934   1.7659   5.6063   9.1355

     occupation numbers 
     1.0000   1.0000   1.0000   1.0000

          k = 0.5000 0.0000 0.5000 (   754 PWs)   bands (ev):

    -3.6475   4.6553   5.7399  10.3275

     occupation numbers 
     1.0000   1.0000   1.0000   1.0000

          k = 0.0000 0.7500 0.0000 (   753 PWs)   bands (ev):

    -3.0615   4.7748   7.5998   7.5998

     occupation numbers 
     1.0000   1.0000   1.0000   1.0000

          k = 0.8750-0.1250 0.8750 (   757 PWs)   bands (ev):

    -1.0996   2.6902   5.9997   7.4167

     occupation numbers 
     1.0000   1.0000   1.0000   1.0000

          k = 0.7500 0.0000 0.7500 (   746 PWs)   bands (ev):

     0.3880   1.6269   4.0275   7.9750

     occupation numbers 
     1.0000   1.0000   1.0000   1.0000

          k = 0.0000-1.0000 0.0000 (   740 PWs)   bands (ev):

     0.5966   0.5966   7.0403   7.0403

     occupation numbers 
     1.0000   1.0000   1.0000   1.0000

          k =-0.2500 0.5000 0.0000 (   761 PWs)   bands (ev):

    -5.2745   6.8429   7.8435  10.4547

     occupation numbers 
     1.0000   1.0000   1.0000   1.0000

          k = 0.6250-0.3750 0.8750 (   756 PWs)   bands (ev):

    -3.2488   3.5080   7.0691   9.2603

     occupation numbers 
     1.0000   1.0000   1.0000   1.0000

          k = 0.5000-0.2500 0.7500 (   750 PWs)   bands (ev):

    -1.3247   0.9875   7.0356   8.6531

     occupation numbers 
     1.0000   1.0000   1.0000   1.0000

          k = 0.7500-0.2500 1.0000 (   755 PWs)   bands (ev):

    -2.5524   4.3473   6.3508   7.4015

     occupation numbers 
     1.0000   1.0000   1.0000   1.0000

          k = 0.6250-0.1250 0.8750 (   751 PWs)   bands (ev):

    -0.3577   2.1902   4.9350   6.9938

     occupation numbers 
     1.0000   1.0000   1.0000   1.0000

          k = 0.5000 0.0000 0.7500 (   747 PWs)   bands (ev):

    -1.1494   2.9526   4.4783   7.8685

     occupation numbers 
     1.0000   1.0000   1.0000   1.0000

          k =-0.2500-1.0000 0.0000 (   746 PWs)   bands (ev):

     0.9351   0.9351   6.0283   6.0283

     occupation numbers 
     1.0000   1.0000   1.0000   1.0000

          k =-0.5000-1.0000 0.0000 (   744 PWs)   bands (ev):

     1.3899   1.3899   5.0209   5.0209

     occupation numbers 
     1.0000   1.0000   1.0000   1.0000

     highest occupied level (ev):    13.3410

!    total energy              =     -22.78696639 Ry
     estimated scf accuracy    <          1.2E-09 Ry

     The total energy is the sum of the following terms:
     one-electron contribution =       7.98087611 Ry
     hartree contribution      =       1.93827158 Ry
     xc contribution           =      -7.11942304 Ry
     ewald contribution        =     -25.58669105 Ry

     convergence has been achieved in   6 iterations

     Writing all to output data dir ./diamond.save/ :
     XML data file, charge density, pseudopotentials, collected wavefunctions

     init_run     :      0.21s CPU      0.24s WALL (       1 calls)
     electrons    :      0.44s CPU      0.50s WALL (       1 calls)

     Called by init_run:
     wfcinit      :      0.01s CPU      0.02s WALL (       1 calls)
     wfcinit:wfcr :      0.01s CPU      0.01s WALL (      29 calls)
     potinit      :      0.01s CPU      0.01s WALL (       1 calls)
     hinit0       :      0.19s CPU      0.19s WALL (       1 calls)

     Called by electrons:
     c_bands      :      0.40s CPU      0.43s WALL (       6 calls)
     sum_band     :      0.03s CPU      0.04s WALL (       6 calls)
     v_of_rho     :      0.01s CPU      0.01s WALL (       7 calls)
     v_h          :      0.00s CPU      0.00s WALL (       7 calls)
     v_xc         :      0.01s CPU      0.01s WALL (       7 calls)
     mix_rho      :      0.00s CPU      0.00s WALL (       6 calls)

     Called by c_bands:
     init_us_2    :      0.02s CPU      0.02s WALL (     377 calls)
     cegterg      :      0.38s CPU      0.41s WALL (     174 calls)

     Called by sum_band:
     sum_band:wei :      0.00s CPU      0.00s WALL (       6 calls)
     sum_band:loo :      0.03s CPU      0.04s WALL (       6 calls)
     sum_band:buf :      0.00s CPU      0.00s WALL (     174 calls)
     sum_band:ini :      0.01s CPU      0.01s WALL (     174 calls)

     Called by *egterg:
     cdiaghg      :      0.07s CPU      0.08s WALL (    1009 calls)
     cegterg:over :      0.01s CPU      0.01s WALL (     835 calls)
     cegterg:upda :      0.01s CPU      0.01s WALL (     835 calls)
     cegterg:last :      0.01s CPU      0.01s WALL (     692 calls)
     h_psi        :      0.28s CPU      0.30s WALL (    1038 calls)
     g_psi        :      0.00s CPU      0.00s WALL (     835 calls)

     Called by h_psi:
     h_psi:calbec :      0.01s CPU      0.02s WALL (    1038 calls)
     vloc_psi     :      0.25s CPU      0.27s WALL (    1038 calls)
     add_vuspsi   :      0.01s CPU      0.01s WALL (    1038 calls)

     General routines
     calbec       :      0.01s CPU      0.01s WALL (    1038 calls)
     fft          :      0.18s CPU      0.18s WALL (      69 calls)
     ffts         :      0.00s CPU      0.00s WALL (       6 calls)
     fftw         :      0.23s CPU      0.26s WALL (    7198 calls)

     Parallel routines

     PWSCF        :      0.68s CPU      0.82s WALL


   This run was terminated on:   0:15:16   6Oct2024            

=------------------------------------------------------------------------------=
   JOB DONE.
=------------------------------------------------------------------------------=
