
     Program BANDS v.7.3.1 starts on  5Oct2024 at 21:51: 0 

     This program is part of the open-source Quantum ESPRESSO suite
     for quantum simulation of materials; please cite
         "P. Giannozzi et al., J. Phys.:Condens. Matter 21 395502 (2009);
         "P. Giannozzi et al., J. Phys.:Condens. Matter 29 465901 (2017);
         "P. Giannozzi et al., J. Chem. Phys. 152 154105 (2020);
          URL http://www.quantum-espresso.org", 
     in publications or presentations arising from this work. More details at
     http://www.quantum-espresso.org/quote

     Parallel version (MPI & OpenMP), running on       2 processor cores
     Number of MPI processes:                 2
     Threads/MPI process:                     1

     MPI processes distributed on     1 nodes
     R & G space division:  proc/nbgrp/npool/nimage =       2
     508843 MiB available memory on the printing compute node when the environment starts


     Reading xml data from directory:

     ./diamond.save/

     IMPORTANT: XC functional enforced from input :
     Exchange-correlation= PBE
                           (   1   4   3   4   0   0   0)
     Any further DFT definition will be discarded
     Please, verify this is what you really want


     Parallelization info
     --------------------
     sticks:   dense  smooth     PW     G-vecs:    dense   smooth      PW
     Min         156     126     42                 1847     1318     264
     Max         157     127     43                 1848     1319     267
     Sum         313     253     85                 3695     2637     531

     Using Slab Decomposition

     Reading collected, re-writing distributed wavefunctions
     high-symmetry point:  0.0000 0.0000 0.0000   x coordinate   0.0000
     high-symmetry point:  0.5000 0.0000 0.5000   x coordinate   0.7071
     high-symmetry point:  0.3750 0.3750 0.7500   x coordinate   1.1748
     high-symmetry point:  0.0000 0.0000 0.0000   x coordinate   2.0934
     high-symmetry point:  0.5000 0.5000 0.5000   x coordinate   2.9594
     high-symmetry point:  0.2500 0.2500 0.2500   x coordinate   3.3924

     Plottable bands (eV) written to file bands.dat.gnu
     Bands written to file bands.dat

 **************************************************************************

                    xk=(   0.00000,   0.00000,   0.00000  )

     point group O_h (m-3m) 
     there are 10 classes
     the character table:

       E     8C3   3C2   6C4   6C2'  i     8S6   3s_h  6S4   6s_d 
A_1g   1.00  1.00  1.00  1.00  1.00  1.00  1.00  1.00  1.00  1.00
A_2g   1.00  1.00  1.00 -1.00 -1.00  1.00  1.00  1.00 -1.00 -1.00
E_g    2.00 -1.00  2.00  0.00  0.00  2.00 -1.00  2.00  0.00  0.00
T_1g   3.00  0.00 -1.00  1.00 -1.00  3.00  0.00 -1.00  1.00 -1.00
T_2g   3.00  0.00 -1.00 -1.00  1.00  3.00  0.00 -1.00 -1.00  1.00
A_1u   1.00  1.00  1.00  1.00  1.00 -1.00 -1.00 -1.00 -1.00 -1.00
A_2u   1.00  1.00  1.00 -1.00 -1.00 -1.00 -1.00 -1.00  1.00  1.00
E_u    2.00 -1.00  2.00  0.00  0.00 -2.00  1.00 -2.00  0.00  0.00
T_1u   3.00  0.00 -1.00  1.00 -1.00 -3.00  0.00  1.00 -1.00  1.00
T_2u   3.00  0.00 -1.00 -1.00  1.00 -3.00  0.00  1.00  1.00 -1.00

     the symmetry operations in each class and the name of the first element:

     E        1
                                                                 
     8C3     17   19   20   18   24   21   22   23
                                                                 
     3C2      2    4    3
                                                                 
     6C4      7    8   15   16   12   11
                                                                 
     6C2'     5    6   14   13   10    9
                                                                 
     i       25
                                                                 
     8S6     41   43   44   42   48   45   46   47
                                                                 
     3s_h    26   28   27
                                                                 
     6S4     31   32   39   40   36   35
                                                                 
     6s_d    29   30   38   37   34   33
                                                                 

     Band symmetry, O_h (m-3m)  point group:

     e(  1 -  1) =     -8.13321  eV     1   --> A_1g G_1   G_1+
     e(  2 -  4) =     13.47343  eV     3   --> T_2g G_25' G_5+
     e(  5 -  7) =     19.12453  eV     3   --> T_1u G_15  G_4-
     e(  8 -  8) =     26.67814  eV     1   --> A_2u G_2'  G_2-

 **************************************************************************

 **************************************************************************

                    xk=(   0.05000,   0.00000,   0.05000  )

     point group C_2v (mm2) 
     there are  4 classes
     the character table:

       E     C2    s_v   s_v' 
A_1    1.00  1.00  1.00  1.00
A_2    1.00  1.00 -1.00 -1.00
B_1    1.00 -1.00  1.00 -1.00
B_2    1.00 -1.00 -1.00  1.00

     the symmetry operations in each class and the name of the first element:

     E        1
                                                                 
     C2       2
                                                                 
     s_v      3
                                                                 
     s_v'     4
                                                                 

     Band symmetry, C_2v (mm2)  point group:

     e(  1 -  1) =     -8.08672  eV     1   --> A_1  D_1  S_1  
     e(  2 -  2) =     13.19591  eV     1   --> B_2  D_4  S_4  
     e(  3 -  3) =     13.27803  eV     1   --> A_1  D_1  S_1  
     e(  4 -  4) =     13.44526  eV     1   --> A_2  D_2  S_2  
     e(  5 -  5) =     19.17210  eV     1   --> B_1  D_3  S_3  
     e(  6 -  6) =     19.27360  eV     1   --> A_1  D_1  S_1  
     e(  7 -  7) =     19.35267  eV     1   --> B_2  D_4  S_4  
     e(  8 -  8) =     26.72346  eV     1   --> B_2  D_4  S_4  

 **************************************************************************

 **************************************************************************

                    xk=(   0.10000,   0.00000,   0.10000  )

     Band symmetry, C_2v (mm2)  point group:

     e(  1 -  1) =     -7.94736  eV     1   --> A_1  D_1  S_1  
     e(  2 -  2) =     12.48530  eV     1   --> B_2  D_4  S_4  
     e(  3 -  3) =     12.74950  eV     1   --> A_1  D_1  S_1  
     e(  4 -  4) =     13.35940  eV     1   --> A_2  D_2  S_2  
     e(  5 -  5) =     19.31457  eV     1   --> B_1  D_3  S_3  
     e(  6 -  6) =     19.67102  eV     1   --> A_1  D_1  S_1  
     e(  7 -  7) =     19.90889  eV     1   --> B_2  D_4  S_4  
     e(  8 -  8) =     26.84912  eV     1   --> B_2  D_4  S_4  

 **************************************************************************

 **************************************************************************

                    xk=(   0.15000,   0.00000,   0.15000  )

     Band symmetry, C_2v (mm2)  point group:

     e(  1 -  1) =     -7.71681  eV     1   --> A_1  D_1  S_1  
     e(  2 -  2) =     11.57293  eV     1   --> B_2  D_4  S_4  
     e(  3 -  3) =     12.00145  eV     1   --> A_1  D_1  S_1  
     e(  4 -  4) =     13.22109  eV     1   --> A_2  D_2  S_2  
     e(  5 -  5) =     19.55112  eV     1   --> B_1  D_3  S_3  
     e(  6 -  6) =     20.21759  eV     1   --> A_1  D_1  S_1  
     e(  7 -  7) =     20.57939  eV     1   --> B_2  D_4  S_4  
     e(  8 -  8) =     27.02198  eV     1   --> B_2  D_4  S_4  

 **************************************************************************

 **************************************************************************

                    xk=(   0.20000,   0.00000,   0.20000  )

     Band symmetry, C_2v (mm2)  point group:

     e(  1 -  1) =     -7.39342  eV     1   --> A_1  D_1  S_1  
     e(  2 -  2) =     10.53788  eV     1   --> B_2  D_4  S_4  
     e(  3 -  3) =     11.12889  eV     1   --> A_1  D_1  S_1  
     e(  4 -  4) =     13.00819  eV     1   --> A_2  D_2  S_2  
     e(  5 -  5) =     19.88131  eV     1   --> B_1  D_3  S_3  
     e(  6 -  6) =     20.89540  eV     1   --> A_1  D_1  S_1  
     e(  7 -  7) =     21.22831  eV     1   --> B_2  D_4  S_4  
     e(  8 -  8) =     27.18674  eV     1   --> B_2  D_4  S_4  

 **************************************************************************

 **************************************************************************

                    xk=(   0.25000,   0.00000,   0.25000  )

     Band symmetry, C_2v (mm2)  point group:

     e(  1 -  1) =     -6.97934  eV     1   --> A_1  D_1  S_1  
     e(  2 -  2) =      9.48340  eV     1   --> B_2  D_4  S_4  
     e(  3 -  3) =     10.21221  eV     1   --> A_1  D_1  S_1  
     e(  4 -  4) =     12.76026  eV     1   --> A_2  D_2  S_2  
     e(  5 -  5) =     20.30110  eV     1   --> B_1  D_3  S_3  
     e(  6 -  6) =     21.63285  eV     1   --> A_1  D_1  S_1  
     e(  7 -  7) =     21.74921  eV     1   --> B_2  D_4  S_4  
     e(  8 -  8) =     27.27752  eV     1   --> B_2  D_4  S_4  

 **************************************************************************

 **************************************************************************

                    xk=(   0.30000,   0.00000,   0.30000  )

     Band symmetry, C_2v (mm2)  point group:

     e(  1 -  1) =     -6.47737  eV     1   --> A_1  D_1  S_1  
     e(  2 -  2) =      8.42249  eV     1   --> B_2  D_4  S_4  
     e(  3 -  3) =      9.25977  eV     1   --> A_1  D_1  S_1  
     e(  4 -  4) =     12.40663  eV     1   --> A_2  D_2  S_2  
     e(  5 -  5) =     20.80856  eV     1   --> B_1  D_3  S_3  
     e(  6 -  6) =     22.07374  eV     1   --> B_2  D_4  S_4  
     e(  7 -  7) =     22.38762  eV     1   --> A_1  D_1  S_1  
     e(  8 -  8) =     27.25917  eV     1   --> B_2  D_4  S_4  

 **************************************************************************

 **************************************************************************

                    xk=(   0.35000,   0.00000,   0.35000  )

     Band symmetry, C_2v (mm2)  point group:

     e(  1 -  1) =     -5.88984  eV     1   --> A_1  D_1  S_1  
     e(  2 -  2) =      7.39757  eV     1   --> B_2  D_4  S_4  
     e(  3 -  3) =      8.32544  eV     1   --> A_1  D_1  S_1  
     e(  4 -  4) =     11.97763  eV     1   --> A_2  D_2  S_2  
     e(  5 -  5) =     21.38954  eV     1   --> B_1  D_3  S_3  
     e(  6 -  6) =     22.19303  eV     1   --> B_2  D_4  S_4  
     e(  7 -  7) =     23.19240  eV     1   --> A_1  D_1  S_1  
     e(  8 -  8) =     27.16134  eV     1   --> B_2  D_4  S_4  

 **************************************************************************

 **************************************************************************

                    xk=(   0.40000,   0.00000,   0.40000  )

     Band symmetry, C_2v (mm2)  point group:

     e(  1 -  1) =     -5.21658  eV     1   --> A_1  D_1  S_1  
     e(  2 -  2) =      6.43368  eV     1   --> B_2  D_4  S_4  
     e(  3 -  3) =      7.43428  eV     1   --> A_1  D_1  S_1  
     e(  4 -  4) =     11.50789  eV     1   --> A_2  D_2  S_2  
     e(  5 -  5) =     22.06355  eV     1   --> B_1  D_3  S_3  
     e(  6 -  6) =     22.10654  eV     1   --> B_2  D_4  S_4  
     e(  7 -  7) =     24.06306  eV     1   --> A_1  D_1  S_1  
     e(  8 -  8) =     27.15027  eV     1   --> B_2  D_4  S_4  

 **************************************************************************

 **************************************************************************

                    xk=(   0.45000,   0.00000,   0.45000  )

     Band symmetry, C_2v (mm2)  point group:

     e(  1 -  1) =     -4.46462  eV     1   --> A_1  D_1  S_1  
     e(  2 -  2) =      5.53072  eV     1   --> B_2  D_4  S_4  
     e(  3 -  3) =      6.59103  eV     1   --> A_1  D_1  S_1  
     e(  4 -  4) =     11.00079  eV     1   --> A_2  D_2  S_2  
     e(  5 -  5) =     21.83215  eV     1   --> B_2  D_4  S_4  
     e(  6 -  6) =     22.80461  eV     1   --> B_1  D_3  S_3  
     e(  7 -  7) =     24.97831  eV     1   --> A_1  D_1  S_1  
     e(  8 -  8) =     27.24177  eV     1   --> B_2  D_4  S_4  

 **************************************************************************

 **************************************************************************

                    xk=(   0.50000,   0.00000,   0.50000  )

     Band symmetry, C_2v (mm2)  point group:

     e(  1 -  1) =     -3.64621  eV     1   --> A_1  D_1  S_1  
     e(  2 -  2) =      4.68947  eV     1   --> B_2  D_4  S_4  
     e(  3 -  3) =      5.81447  eV     1   --> A_1  D_1  S_1  
     e(  4 -  4) =     10.45216  eV     1   --> A_2  D_2  S_2  
     e(  5 -  5) =     21.42096  eV     1   --> B_2  D_4  S_4  
     e(  6 -  6) =     23.60921  eV     1   --> B_1  D_3  S_3  
     e(  7 -  7) =     25.93897  eV     1   --> A_1  D_1  S_1  
     e(  8 -  8) =     27.40991  eV     1   --> B_2  D_4  S_4  

 **************************************************************************

 **************************************************************************

                    xk=(   0.48750,   0.03750,   0.52500  )

     point group C_1 (1)    
     there are  1 classes
     the character table:

       E    
A      1.00

     the symmetry operations in each class and the name of the first element:

     E        1
                                                                 

     Band symmetry, C_1 (1)     point group:

     e(  1 -  1) =     -3.52152  eV     1   --> A              
     e(  2 -  2) =      4.37344  eV     1   --> A              
     e(  3 -  3) =      5.95318  eV     1   --> A              
     e(  4 -  4) =     10.35745  eV     1   --> A              
     e(  5 -  5) =     21.41169  eV     1   --> A              
     e(  6 -  6) =     23.62993  eV     1   --> A              
     e(  7 -  7) =     25.97503  eV     1   --> A              
     e(  8 -  8) =     27.50294  eV     1   --> A              

 **************************************************************************

 **************************************************************************

                    xk=(   0.47500,   0.07500,   0.55000  )

     Band symmetry, C_1 (1)     point group:

     e(  1 -  1) =     -3.36318  eV     1   --> A              
     e(  2 -  2) =      3.84857  eV     1   --> A              
     e(  3 -  3) =      6.32576  eV     1   --> A              
     e(  4 -  4) =     10.21728  eV     1   --> A              
     e(  5 -  5) =     21.49453  eV     1   --> A              
     e(  6 -  6) =     23.47145  eV     1   --> A              
     e(  7 -  7) =     25.90277  eV     1   --> A              
     e(  8 -  8) =     27.68503  eV     1   --> A              

 **************************************************************************

 **************************************************************************

                    xk=(   0.46250,   0.11250,   0.57500  )

     Band symmetry, C_1 (1)     point group:

     e(  1 -  1) =     -3.17222  eV     1   --> A              
     e(  2 -  2) =      3.29228  eV     1   --> A              
     e(  3 -  3) =      6.75708  eV     1   --> A              
     e(  4 -  4) =     10.03219  eV     1   --> A              
     e(  5 -  5) =     21.65646  eV     1   --> A              
     e(  6 -  6) =     23.16910  eV     1   --> A              
     e(  7 -  7) =     25.84149  eV     1   --> A              
     e(  8 -  8) =     27.85012  eV     1   --> A              

 **************************************************************************

 **************************************************************************

                    xk=(   0.45000,   0.15000,   0.60000  )

     Band symmetry, C_1 (1)     point group:

     e(  1 -  1) =     -2.94881  eV     1   --> A              
     e(  2 -  2) =      2.74667  eV     1   --> A              
     e(  3 -  3) =      7.18366  eV     1   --> A              
     e(  4 -  4) =      9.80949  eV     1   --> A              
     e(  5 -  5) =     21.84386  eV     1   --> A              
     e(  6 -  6) =     22.81475  eV     1   --> A              
     e(  7 -  7) =     25.79581  eV     1   --> A              
     e(  8 -  8) =     27.93513  eV     1   --> A              

 **************************************************************************

 **************************************************************************

                    xk=(   0.43750,   0.18750,   0.62500  )

     Band symmetry, C_1 (1)     point group:

     e(  1 -  1) =     -2.70129  eV     1   --> A              
     e(  2 -  2) =      2.23581  eV     1   --> A              
     e(  3 -  3) =      7.58395  eV     1   --> A              
     e(  4 -  4) =      9.59194  eV     1   --> A              
     e(  5 -  5) =     21.86158  eV     1   --> A              
     e(  6 -  6) =     22.67071  eV     1   --> A              
     e(  7 -  7) =     25.77450  eV     1   --> A              
     e(  8 -  8) =     28.00176  eV     1   --> A              

 **************************************************************************

 **************************************************************************

                    xk=(   0.42500,   0.22500,   0.65000  )

     Band symmetry, C_1 (1)     point group:

     e(  1 -  1) =     -2.43211  eV     1   --> A              
     e(  2 -  2) =      1.76836  eV     1   --> A              
     e(  3 -  3) =      7.89772  eV     1   --> A              
     e(  4 -  4) =      9.40349  eV     1   --> A              
     e(  5 -  5) =     21.55191  eV     1   --> A              
     e(  6 -  6) =     22.92003  eV     1   --> A              
     e(  7 -  7) =     25.72516  eV     1   --> A              
     e(  8 -  8) =     28.05212  eV     1   --> A              

 **************************************************************************

 **************************************************************************

                    xk=(   0.41250,   0.26250,   0.67500  )

     Band symmetry, C_1 (1)     point group:

     e(  1 -  1) =     -2.15680  eV     1   --> A              
     e(  2 -  2) =      1.35901  eV     1   --> A              
     e(  3 -  3) =      8.04244  eV     1   --> A              
     e(  4 -  4) =      9.30677  eV     1   --> A              
     e(  5 -  5) =     21.18255  eV     1   --> A              
     e(  6 -  6) =     23.32438  eV     1   --> A              
     e(  7 -  7) =     25.62314  eV     1   --> A              
     e(  8 -  8) =     28.11283  eV     1   --> A              

 **************************************************************************

 **************************************************************************

                    xk=(   0.40000,   0.30000,   0.70000  )

     Band symmetry, C_1 (1)     point group:

     e(  1 -  1) =     -1.89764  eV     1   --> A              
     e(  2 -  2) =      1.03180  eV     1   --> A              
     e(  3 -  3) =      7.99057  eV     1   --> A              
     e(  4 -  4) =      9.34941  eV     1   --> A              
     e(  5 -  5) =     20.88355  eV     1   --> A              
     e(  6 -  6) =     23.77762  eV     1   --> A              
     e(  7 -  7) =     25.46796  eV     1   --> A              
     e(  8 -  8) =     28.22289  eV     1   --> A              

 **************************************************************************

 **************************************************************************

                    xk=(   0.38750,   0.33750,   0.72500  )

     Band symmetry, C_1 (1)     point group:

     e(  1 -  1) =     -1.69007  eV     1   --> A              
     e(  2 -  2) =      0.83248  eV     1   --> A              
     e(  3 -  3) =      7.80489  eV     1   --> A              
     e(  4 -  4) =      9.45034  eV     1   --> A              
     e(  5 -  5) =     20.70309  eV     1   --> A              
     e(  6 -  6) =     24.22959  eV     1   --> A              
     e(  7 -  7) =     25.28816  eV     1   --> A              
     e(  8 -  8) =     28.38443  eV     1   --> A              

 **************************************************************************

 **************************************************************************

                    xk=(   0.37500,   0.37500,   0.75000  )

     point group C_s (m)    
     there are  2 classes
     the character table:

       E     s    
A'     1.00  1.00
A''    1.00 -1.00

     the symmetry operations in each class and the name of the first element:

     E        1
                                                                 
     s        2
                                                                 

     Band symmetry, C_s (m)     point group:

     e(  1 -  1) =     -1.58308  eV     1   --> A'             
     e(  2 -  2) =      0.79757  eV     1   --> A'             
     e(  3 -  3) =      7.55479  eV     1   --> A'             
     e(  4 -  4) =      9.51805  eV     1   --> A''            
     e(  5 -  5) =     20.65799  eV     1   --> A'             
     e(  6 -  6) =     24.45872  eV     1   --> A''            
     e(  7 -  7) =     25.24292  eV     1   --> A'             
     e(  8 -  8) =     28.57064  eV     1   --> A'             

 **************************************************************************

 **************************************************************************

                    xk=(   0.33750,   0.33750,   0.67500  )

     Band symmetry, C_s (m)     point group:

     e(  1 -  1) =     -2.24974  eV     1   --> A'             
     e(  2 -  2) =      1.27077  eV     1   --> A'             
     e(  3 -  3) =      8.35890  eV     1   --> A'             
     e(  4 -  4) =      9.48117  eV     1   --> A''            
     e(  5 -  5) =     20.60120  eV     1   --> A'             
     e(  6 -  6) =     24.37021  eV     1   --> A''            
     e(  7 -  7) =     24.78359  eV     1   --> A'             
     e(  8 -  8) =     27.94324  eV     1   --> A'             

 **************************************************************************

 **************************************************************************

                    xk=(   0.30000,   0.30000,   0.60000  )

     Band symmetry, C_s (m)     point group:

     e(  1 -  1) =     -3.33013  eV     1   --> A'             
     e(  2 -  2) =      2.40944  eV     1   --> A'             
     e(  3 -  3) =      9.17861  eV     1   --> A'             
     e(  4 -  4) =      9.58008  eV     1   --> A''            
     e(  5 -  5) =     20.58222  eV     1   --> A'             
     e(  6 -  6) =     24.14200  eV     1   --> A''            
     e(  7 -  7) =     24.27926  eV     1   --> A'             
     e(  8 -  8) =     27.37940  eV     1   --> A'             

 **************************************************************************

 **************************************************************************

                    xk=(   0.26250,   0.26250,   0.52500  )

     Band symmetry, C_s (m)     point group:

     e(  1 -  1) =     -4.39662  eV     1   --> A'             
     e(  2 -  2) =      3.79013  eV     1   --> A'             
     e(  3 -  3) =      9.82454  eV     1   --> A''            
     e(  4 -  4) =      9.99354  eV     1   --> A'             
     e(  5 -  5) =     20.53840  eV     1   --> A'             
     e(  6 -  6) =     23.75449  eV     1   --> A'             
     e(  7 -  7) =     23.82362  eV     1   --> A''            
     e(  8 -  8) =     27.04768  eV     1   --> A'             

 **************************************************************************

 **************************************************************************

                    xk=(   0.22500,   0.22500,   0.45000  )

     Band symmetry, C_s (m)     point group:

     e(  1 -  1) =     -5.36424  eV     1   --> A'             
     e(  2 -  2) =      5.31270  eV     1   --> A'             
     e(  3 -  3) =     10.20642  eV     1   --> A''            
     e(  4 -  4) =     10.77426  eV     1   --> A'             
     e(  5 -  5) =     20.43067  eV     1   --> A'             
     e(  6 -  6) =     23.19300  eV     1   --> A'             
     e(  7 -  7) =     23.37869  eV     1   --> A''            
     e(  8 -  8) =     27.00430  eV     1   --> A'             

 **************************************************************************

 **************************************************************************

                    xk=(   0.18750,   0.18750,   0.37500  )

     Band symmetry, C_s (m)     point group:

     e(  1 -  1) =     -6.19893  eV     1   --> A'             
     e(  2 -  2) =      6.92647  eV     1   --> A'             
     e(  3 -  3) =     10.70972  eV     1   --> A''            
     e(  4 -  4) =     11.50100  eV     1   --> A'             
     e(  5 -  5) =     20.20910  eV     1   --> A'             
     e(  6 -  6) =     22.57279  eV     1   --> A'             
     e(  7 -  7) =     22.75702  eV     1   --> A''            
     e(  8 -  8) =     27.15108  eV     1   --> A'             

 **************************************************************************

 **************************************************************************

                    xk=(   0.15000,   0.15000,   0.30000  )

     Band symmetry, C_s (m)     point group:

     e(  1 -  1) =     -6.88791  eV     1   --> A'             
     e(  2 -  2) =      8.59778  eV     1   --> A'             
     e(  3 -  3) =     11.32963  eV     1   --> A''            
     e(  4 -  4) =     12.15872  eV     1   --> A'             
     e(  5 -  5) =     19.94148  eV     1   --> A'             
     e(  6 -  6) =     21.89275  eV     1   --> A'             
     e(  7 -  7) =     21.94725  eV     1   --> A''            
     e(  8 -  8) =     27.27239  eV     1   --> A'             

 **************************************************************************

 **************************************************************************

                    xk=(   0.11250,   0.11250,   0.22500  )

     Band symmetry, C_s (m)     point group:

     e(  1 -  1) =     -7.43022  eV     1   --> A'             
     e(  2 -  2) =     10.24435  eV     1   --> A'             
     e(  3 -  3) =     12.00493  eV     1   --> A''            
     e(  4 -  4) =     12.69488  eV     1   --> A'             
     e(  5 -  5) =     19.63863  eV     1   --> A'             
     e(  6 -  6) =     21.03179  eV     1   --> A''            
     e(  7 -  7) =     21.12192  eV     1   --> A'             
     e(  8 -  8) =     27.17420  eV     1   --> A'             

 **************************************************************************

 **************************************************************************

                    xk=(   0.07500,   0.07500,   0.15000  )

     Band symmetry, C_s (m)     point group:

     e(  1 -  1) =     -7.82043  eV     1   --> A'             
     e(  2 -  2) =     11.76216  eV     1   --> A'             
     e(  3 -  3) =     12.68529  eV     1   --> A''            
     e(  4 -  4) =     13.10639  eV     1   --> A'             
     e(  5 -  5) =     19.36997  eV     1   --> A'             
     e(  6 -  6) =     20.12413  eV     1   --> A''            
     e(  7 -  7) =     20.23376  eV     1   --> A'             
     e(  8 -  8) =     26.95033  eV     1   --> A'             

 **************************************************************************

 **************************************************************************

                    xk=(   0.03750,   0.03750,   0.07500  )

     Band symmetry, C_s (m)     point group:

     e(  1 -  1) =     -8.05477  eV     1   --> A'             
     e(  2 -  2) =     12.97153  eV     1   --> A'             
     e(  3 -  3) =     13.24528  eV     1   --> A''            
     e(  4 -  4) =     13.37786  eV     1   --> A'             
     e(  5 -  5) =     19.18950  eV     1   --> A'             
     e(  6 -  6) =     19.40883  eV     1   --> A''            
     e(  7 -  7) =     19.47209  eV     1   --> A'             
     e(  8 -  8) =     26.75366  eV     1   --> A'             

 **************************************************************************

 **************************************************************************

                    xk=(   0.00000,   0.00000,   0.00000  )

     point group O_h (m-3m) 
     there are 10 classes
     the character table:

       E     8C3   3C2   6C4   6C2'  i     8S6   3s_h  6S4   6s_d 
A_1g   1.00  1.00  1.00  1.00  1.00  1.00  1.00  1.00  1.00  1.00
A_2g   1.00  1.00  1.00 -1.00 -1.00  1.00  1.00  1.00 -1.00 -1.00
E_g    2.00 -1.00  2.00  0.00  0.00  2.00 -1.00  2.00  0.00  0.00
T_1g   3.00  0.00 -1.00  1.00 -1.00  3.00  0.00 -1.00  1.00 -1.00
T_2g   3.00  0.00 -1.00 -1.00  1.00  3.00  0.00 -1.00 -1.00  1.00
A_1u   1.00  1.00  1.00  1.00  1.00 -1.00 -1.00 -1.00 -1.00 -1.00
A_2u   1.00  1.00  1.00 -1.00 -1.00 -1.00 -1.00 -1.00  1.00  1.00
E_u    2.00 -1.00  2.00  0.00  0.00 -2.00  1.00 -2.00  0.00  0.00
T_1u   3.00  0.00 -1.00  1.00 -1.00 -3.00  0.00  1.00 -1.00  1.00
T_2u   3.00  0.00 -1.00 -1.00  1.00 -3.00  0.00  1.00  1.00 -1.00

     the symmetry operations in each class and the name of the first element:

     E        1
                                                                 
     8C3     17   19   20   18   24   21   22   23
                                                                 
     3C2      2    4    3
                                                                 
     6C4      7    8   15   16   12   11
                                                                 
     6C2'     5    6   14   13   10    9
                                                                 
     i       25
                                                                 
     8S6     41   43   44   42   48   45   46   47
                                                                 
     3s_h    26   28   27
                                                                 
     6S4     31   32   39   40   36   35
                                                                 
     6s_d    29   30   38   37   34   33
                                                                 

     Band symmetry, O_h (m-3m)  point group:

     e(  1 -  1) =     -8.13321  eV     1   --> A_1g G_1   G_1+
     e(  2 -  4) =     13.47343  eV     3   --> T_2g G_25' G_5+
     e(  5 -  7) =     19.12453  eV     3   --> T_1u G_15  G_4-
     e(  8 -  8) =     26.67814  eV     1   --> A_2u G_2'  G_2-

 **************************************************************************

 **************************************************************************

                    xk=(   0.05000,   0.05000,   0.05000  )

     point group C_3v (3m)  
     there are  3 classes
     the character table:

       E     2C3   3s_v 
A_1    1.00  1.00  1.00
A_2    1.00  1.00 -1.00
E      2.00 -1.00  0.00

     the symmetry operations in each class and the name of the first element:

     E        1
                                                                 
     2C3      2    3
                                                                 
     3s_v     4    5    6
                                                                 

     Band symmetry, C_3v (3m)   point group:

     e(  1 -  1) =     -8.06348  eV     1   --> A_1  L_1       
     e(  2 -  2) =     12.98352  eV     1   --> A_1  L_1       
     e(  3 -  4) =     13.34961  eV     2   --> E    L_3       
     e(  5 -  6) =     19.28751  eV     2   --> E    L_3       
     e(  7 -  7) =     19.42066  eV     1   --> A_1  L_1       
     e(  8 -  8) =     26.74734  eV     1   --> A_1  L_1       

 **************************************************************************

 **************************************************************************

                    xk=(   0.10000,   0.10000,   0.10000  )

     Band symmetry, C_3v (3m)   point group:

     e(  1 -  1) =     -7.85523  eV     1   --> A_1  L_1       
     e(  2 -  2) =     11.80117  eV     1   --> A_1  L_1       
     e(  3 -  4) =     13.03065  eV     2   --> E    L_3       
     e(  5 -  6) =     19.71753  eV     2   --> E    L_3       
     e(  7 -  7) =     20.05755  eV     1   --> A_1  L_1       
     e(  8 -  8) =     26.95382  eV     1   --> A_1  L_1       

 **************************************************************************

 **************************************************************************

                    xk=(   0.15000,   0.15000,   0.15000  )

     Band symmetry, C_3v (3m)   point group:

     e(  1 -  1) =     -7.50828  eV     1   --> A_1  L_1       
     e(  2 -  2) =     10.24772  eV     1   --> A_1  L_1       
     e(  3 -  4) =     12.60364  eV     2   --> E    L_3       
     e(  5 -  6) =     20.28530  eV     2   --> E    L_3       
     e(  7 -  7) =     20.74479  eV     1   --> A_1  L_1       
     e(  8 -  8) =     27.29262  eV     1   --> A_1  L_1       

 **************************************************************************

 **************************************************************************

                    xk=(   0.20000,   0.20000,   0.20000  )

     Band symmetry, C_3v (3m)   point group:

     e(  1 -  1) =     -7.02484  eV     1   --> A_1  L_1       
     e(  2 -  2) =      8.56719  eV     1   --> A_1  L_1       
     e(  3 -  4) =     12.17359  eV     2   --> E    L_3       
     e(  5 -  6) =     20.86800  eV     2   --> E    L_3       
     e(  7 -  7) =     21.26305  eV     1   --> A_1  L_1       
     e(  8 -  8) =     27.73289  eV     1   --> A_1  L_1       

 **************************************************************************

 **************************************************************************

                    xk=(   0.25000,   0.25000,   0.25000  )

     Band symmetry, C_3v (3m)   point group:

     e(  1 -  1) =     -6.40920  eV     1   --> A_1  L_1       
     e(  2 -  2) =      6.82327  eV     1   --> A_1  L_1       
     e(  3 -  4) =     11.74720  eV     2   --> E    L_3       
     e(  5 -  6) =     21.35170  eV     2   --> E    L_3       
     e(  7 -  7) =     21.62263  eV     1   --> A_1  L_1       
     e(  8 -  8) =     28.20074  eV     1   --> A_1  L_1       

 **************************************************************************

 **************************************************************************

                    xk=(   0.30000,   0.30000,   0.30000  )

     Band symmetry, C_3v (3m)   point group:

     e(  1 -  1) =     -5.66891  eV     1   --> A_1  L_1       
     e(  2 -  2) =      5.13421  eV     1   --> A_1  L_1       
     e(  3 -  4) =     11.36299  eV     2   --> E    L_3       
     e(  5 -  6) =     21.70856  eV     2   --> E    L_3       
     e(  7 -  7) =     21.86607  eV     1   --> A_1  L_1       
     e(  8 -  8) =     28.61805  eV     1   --> A_1  L_1       

 **************************************************************************

 **************************************************************************

                    xk=(   0.35000,   0.35000,   0.35000  )

     Band symmetry, C_3v (3m)   point group:

     e(  1 -  1) =     -4.80604  eV     1   --> A_1  L_1       
     e(  2 -  2) =      3.49460  eV     1   --> A_1  L_1       
     e(  3 -  4) =     11.05164  eV     2   --> E    L_3       
     e(  5 -  6) =     21.90114  eV     2   --> E    L_3       
     e(  7 -  7) =     22.03401  eV     1   --> A_1  L_1       
     e(  8 -  8) =     28.89728  eV     1   --> A_1  L_1       

 **************************************************************************

 **************************************************************************

                    xk=(   0.40000,   0.40000,   0.40000  )

     Band symmetry, C_3v (3m)   point group:

     e(  1 -  1) =     -3.85195  eV     1   --> A_1  L_1       
     e(  2 -  2) =      1.98577  eV     1   --> A_1  L_1       
     e(  3 -  4) =     10.84527  eV     2   --> E    L_3       
     e(  5 -  6) =     21.97674  eV     2   --> E    L_3       
     e(  7 -  7) =     22.15355  eV     1   --> A_1  L_1       
     e(  8 -  8) =     29.11839  eV     1   --> A_1  L_1       

 **************************************************************************

 **************************************************************************

                    xk=(   0.45000,   0.45000,   0.45000  )

     Band symmetry, C_3v (3m)   point group:

     e(  1 -  1) =     -2.89830  eV     1   --> A_1  L_1       
     e(  2 -  2) =      0.67110  eV     1   --> A_1  L_1       
     e(  3 -  4) =     10.71173  eV     2   --> E    L_3       
     e(  5 -  6) =     21.99942  eV     2   --> E    L_3       
     e(  7 -  7) =     22.20996  eV     1   --> A_1  L_1       
     e(  8 -  8) =     29.23149  eV     1   --> A_1  L_1       

 **************************************************************************

 **************************************************************************

                    xk=(   0.50000,   0.50000,   0.50000  )

     zone border point and non-symmorphic group 
     symmetry decomposition not available

 **************************************************************************

 **************************************************************************

                    xk=(   0.47500,   0.47500,   0.47500  )

     point group C_3v (3m)  
     there are  3 classes
     the character table:

       E     2C3   3s_v 
A_1    1.00  1.00  1.00
A_2    1.00  1.00 -1.00
E      2.00 -1.00  0.00

     the symmetry operations in each class and the name of the first element:

     E        1
                                                                 
     2C3      2    3
                                                                 
     3s_v     4    5    6
                                                                 

     Band symmetry, C_3v (3m)   point group:

     e(  1 -  1) =     -2.51275  eV     1   --> A_1  L_1       
     e(  2 -  2) =      0.20630  eV     1   --> A_1  L_1       
     e(  3 -  4) =     10.67928  eV     2   --> E    L_3       
     e(  5 -  6) =     22.00343  eV     2   --> E    L_3       
     e(  7 -  7) =     22.22761  eV     1   --> A_1  L_1       
     e(  8 -  8) =     29.29499  eV     1   --> A_1  L_1       

 **************************************************************************

 **************************************************************************

                    xk=(   0.45000,   0.45000,   0.45000  )

     Band symmetry, C_3v (3m)   point group:

     e(  1 -  1) =     -2.89830  eV     1   --> A_1  L_1       
     e(  2 -  2) =      0.67110  eV     1   --> A_1  L_1       
     e(  3 -  4) =     10.71173  eV     2   --> E    L_3       
     e(  5 -  6) =     21.99942  eV     2   --> E    L_3       
     e(  7 -  7) =     22.20996  eV     1   --> A_1  L_1       
     e(  8 -  8) =     29.23149  eV     1   --> A_1  L_1       

 **************************************************************************

 **************************************************************************

                    xk=(   0.42500,   0.42500,   0.42500  )

     Band symmetry, C_3v (3m)   point group:

     e(  1 -  1) =     -3.35909  eV     1   --> A_1  L_1       
     e(  2 -  2) =      1.29488  eV     1   --> A_1  L_1       
     e(  3 -  4) =     10.76805  eV     2   --> E    L_3       
     e(  5 -  6) =     21.99527  eV     2   --> E    L_3       
     e(  7 -  7) =     22.18754  eV     1   --> A_1  L_1       
     e(  8 -  8) =     29.19086  eV     1   --> A_1  L_1       

 **************************************************************************

 **************************************************************************

                    xk=(   0.40000,   0.40000,   0.40000  )

     Band symmetry, C_3v (3m)   point group:

     e(  1 -  1) =     -3.85195  eV     1   --> A_1  L_1       
     e(  2 -  2) =      1.98577  eV     1   --> A_1  L_1       
     e(  3 -  4) =     10.84527  eV     2   --> E    L_3       
     e(  5 -  6) =     21.97674  eV     2   --> E    L_3       
     e(  7 -  7) =     22.15355  eV     1   --> A_1  L_1       
     e(  8 -  8) =     29.11839  eV     1   --> A_1  L_1       

 **************************************************************************

 **************************************************************************

                    xk=(   0.37500,   0.37500,   0.37500  )

     Band symmetry, C_3v (3m)   point group:

     e(  1 -  1) =     -4.33652  eV     1   --> A_1  L_1       
     e(  2 -  2) =      2.72726  eV     1   --> A_1  L_1       
     e(  3 -  4) =     10.93428  eV     2   --> E    L_3       
     e(  5 -  6) =     21.96837  eV     2   --> E    L_3       
     e(  7 -  7) =     22.10737  eV     1   --> A_1  L_1       
     e(  8 -  8) =     29.02820  eV     1   --> A_1  L_1       

 **************************************************************************

 **************************************************************************

                    xk=(   0.35000,   0.35000,   0.35000  )

     Band symmetry, C_3v (3m)   point group:

     e(  1 -  1) =     -4.80604  eV     1   --> A_1  L_1       
     e(  2 -  2) =      3.49460  eV     1   --> A_1  L_1       
     e(  3 -  4) =     11.05164  eV     2   --> E    L_3       
     e(  5 -  6) =     21.90114  eV     2   --> E    L_3       
     e(  7 -  7) =     22.03401  eV     1   --> A_1  L_1       
     e(  8 -  8) =     28.89728  eV     1   --> A_1  L_1       

 **************************************************************************

 **************************************************************************

                    xk=(   0.32500,   0.32500,   0.32500  )

     Band symmetry, C_3v (3m)   point group:

     e(  1 -  1) =     -5.25133  eV     1   --> A_1  L_1       
     e(  2 -  2) =      4.30004  eV     1   --> A_1  L_1       
     e(  3 -  4) =     11.19144  eV     2   --> E    L_3       
     e(  5 -  6) =     21.81963  eV     2   --> E    L_3       
     e(  7 -  7) =     21.95867  eV     1   --> A_1  L_1       
     e(  8 -  8) =     28.73746  eV     1   --> A_1  L_1       

 **************************************************************************

 **************************************************************************

                    xk=(   0.30000,   0.30000,   0.30000  )

     Band symmetry, C_3v (3m)   point group:

     e(  1 -  1) =     -5.66891  eV     1   --> A_1  L_1       
     e(  2 -  2) =      5.13421  eV     1   --> A_1  L_1       
     e(  3 -  4) =     11.36299  eV     2   --> E    L_3       
     e(  5 -  6) =     21.70856  eV     2   --> E    L_3       
     e(  7 -  7) =     21.86607  eV     1   --> A_1  L_1       
     e(  8 -  8) =     28.61805  eV     1   --> A_1  L_1       

 **************************************************************************

 **************************************************************************

                    xk=(   0.27500,   0.27500,   0.27500  )

     Band symmetry, C_3v (3m)   point group:

     e(  1 -  1) =     -6.05206  eV     1   --> A_1  L_1       
     e(  2 -  2) =      5.96530  eV     1   --> A_1  L_1       
     e(  3 -  4) =     11.55445  eV     2   --> E    L_3       
     e(  5 -  6) =     21.54287  eV     2   --> E    L_3       
     e(  7 -  7) =     21.75770  eV     1   --> A_1  L_1       
     e(  8 -  8) =     28.43449  eV     1   --> A_1  L_1       

 **************************************************************************

 **************************************************************************

                    xk=(   0.25000,   0.25000,   0.25000  )

     Band symmetry, C_3v (3m)   point group:

     e(  1 -  1) =     -6.40920  eV     1   --> A_1  L_1       
     e(  2 -  2) =      6.82327  eV     1   --> A_1  L_1       
     e(  3 -  4) =     11.74720  eV     2   --> E    L_3       
     e(  5 -  6) =     21.35170  eV     2   --> E    L_3       
     e(  7 -  7) =     21.62263  eV     1   --> A_1  L_1       
     e(  8 -  8) =     28.20074  eV     1   --> A_1  L_1       

 **************************************************************************

     BANDS        :      0.37s CPU      0.40s WALL


   This run was terminated on:  21:51: 1   5Oct2024            

=------------------------------------------------------------------------------=
   JOB DONE.
=------------------------------------------------------------------------------=
