
     Program BANDS v.7.3.1 starts on  1Oct2024 at 18: 9:53 

     This program is part of the open-source Quantum ESPRESSO suite
     for quantum simulation of materials; please cite
         "P. Giannozzi et al., J. Phys.:Condens. Matter 21 395502 (2009);
         "P. Giannozzi et al., J. Phys.:Condens. Matter 29 465901 (2017);
         "P. Giannozzi et al., J. Chem. Phys. 152 154105 (2020);
          URL http://www.quantum-espresso.org", 
     in publications or presentations arising from this work. More details at
     http://www.quantum-espresso.org/quote

     Parallel version (MPI & OpenMP), running on       2 processor cores
     Number of MPI processes:                 2
     Threads/MPI process:                     1

     MPI processes distributed on     1 nodes
     R & G space division:  proc/nbgrp/npool/nimage =       2
     505981 MiB available memory on the printing compute node when the environment starts


     Reading xml data from directory:

     ./si.save/

     IMPORTANT: XC functional enforced from input :
     Exchange-correlation= PBE
                           (   1   4   3   4   0   0   0)
     Any further DFT definition will be discarded
     Please, verify this is what you really want


     Parallelization info
     --------------------
     sticks:   dense  smooth     PW     G-vecs:    dense   smooth      PW
     Min         366     291     93                 6469     4628     843
     Max         367     292     94                 6470     4629     844
     Sum         733     583    187                12939     9257    1687

     Using Slab Decomposition

     Reading collected, re-writing distributed wavefunctions
     high-symmetry point:  0.5000 0.5000 0.5000   x coordinate   0.0000
     high-symmetry point:  0.0000 0.0000 0.0000   x coordinate   0.8660
     high-symmetry point:  0.0000 0.0000 1.0000   x coordinate   1.8660
     high-symmetry point:  0.0000 1.0000 1.0000   x coordinate   2.8660
     high-symmetry point:  0.0000 0.0000 0.0000   x coordinate   4.2802

     Plottable bands (eV) written to file bands.dat.gnu
     Bands written to file bands.dat

 **************************************************************************

                    xk=(   0.50000,   0.50000,   0.50000  )

     zone border point and non-symmorphic group 
     symmetry decomposition not available

 **************************************************************************

 **************************************************************************

                    xk=(   0.40000,   0.40000,   0.40000  )

     point group C_3v (3m)  
     there are  3 classes
     the character table:

       E     2C3   3s_v 
A_1    1.00  1.00  1.00
A_2    1.00  1.00 -1.00
E      2.00 -1.00  0.00

     the symmetry operations in each class and the name of the first element:

     E        1
                                                                 
     2C3      2    3
                                                                 
     3s_v     4    5    6
                                                                 

     Band symmetry, C_3v (3m)   point group:

     e(  1 -  1) =     -3.88167  eV     1   --> A_1  L_1       
     e(  2 -  2) =     -0.07231  eV     1   --> A_1  L_1       
     e(  3 -  4) =      5.07046  eV     2   --> E    L_3       
     e(  5 -  5) =      7.81782  eV     1   --> A_1  L_1       
     e(  6 -  7) =      9.61663  eV     2   --> E    L_3       
     e(  8 -  8) =     14.04054  eV     1   --> A_1  L_1       

 **************************************************************************

 **************************************************************************

                    xk=(   0.30000,   0.30000,   0.30000  )

     Band symmetry, C_3v (3m)   point group:

     e(  1 -  1) =     -4.62836  eV     1   --> A_1  L_1       
     e(  2 -  2) =      1.40360  eV     1   --> A_1  L_1       
     e(  3 -  4) =      5.28309  eV     2   --> E    L_3       
     e(  5 -  5) =      8.05693  eV     1   --> A_1  L_1       
     e(  6 -  7) =      9.73344  eV     2   --> E    L_3       
     e(  8 -  8) =     13.79963  eV     1   -->   ?

 **************************************************************************

 **************************************************************************

                    xk=(   0.20000,   0.20000,   0.20000  )

     Band symmetry, C_3v (3m)   point group:

     e(  1 -  1) =     -5.24353  eV     1   --> A_1  L_1       
     e(  2 -  2) =      3.18974  eV     1   --> A_1  L_1       
     e(  3 -  4) =      5.61838  eV     2   --> E    L_3       
     e(  5 -  5) =      8.41784  eV     1   --> A_1  L_1       
     e(  6 -  7) =      9.56214  eV     2   --> E    L_3       
     e(  8 -  8) =     12.24584  eV     1   --> A_1  L_1       

 **************************************************************************

 **************************************************************************

                    xk=(   0.10000,   0.10000,   0.10000  )

     Band symmetry, C_3v (3m)   point group:

     e(  1 -  1) =     -5.62989  eV     1   --> A_1  L_1       
     e(  2 -  2) =      5.05257  eV     1   --> A_1  L_1       
     e(  3 -  4) =      5.99952  eV     2   --> E    L_3       
     e(  5 -  5) =      8.77160  eV     1   --> A_1  L_1       
     e(  6 -  7) =      9.05378  eV     2   --> E    L_3       
     e(  8 -  8) =     10.48183  eV     1   --> A_1  L_1       

 **************************************************************************

 **************************************************************************

                    xk=(   0.00000,   0.00000,   0.00000  )

     point group O_h (m-3m) 
     there are 10 classes
     the character table:

       E     8C3   3C2   6C4   6C2'  i     8S6   3s_h  6S4   6s_d 
A_1g   1.00  1.00  1.00  1.00  1.00  1.00  1.00  1.00  1.00  1.00
A_2g   1.00  1.00  1.00 -1.00 -1.00  1.00  1.00  1.00 -1.00 -1.00
E_g    2.00 -1.00  2.00  0.00  0.00  2.00 -1.00  2.00  0.00  0.00
T_1g   3.00  0.00 -1.00  1.00 -1.00  3.00  0.00 -1.00  1.00 -1.00
T_2g   3.00  0.00 -1.00 -1.00  1.00  3.00  0.00 -1.00 -1.00  1.00
A_1u   1.00  1.00  1.00  1.00  1.00 -1.00 -1.00 -1.00 -1.00 -1.00
A_2u   1.00  1.00  1.00 -1.00 -1.00 -1.00 -1.00 -1.00  1.00  1.00
E_u    2.00 -1.00  2.00  0.00  0.00 -2.00  1.00 -2.00  0.00  0.00
T_1u   3.00  0.00 -1.00  1.00 -1.00 -3.00  0.00  1.00 -1.00  1.00
T_2u   3.00  0.00 -1.00 -1.00  1.00 -3.00  0.00  1.00  1.00 -1.00

     the symmetry operations in each class and the name of the first element:

     E        1
                                                                 
     8C3     17   19   20   18   24   21   22   23
                                                                 
     3C2      2    4    3
                                                                 
     6C4      7    8   15   16   12   11
                                                                 
     6C2'     5    6   14   13   10    9
                                                                 
     i       25
                                                                 
     8S6     41   43   44   42   48   45   46   47
                                                                 
     3s_h    26   28   27
                                                                 
     6S4     31   32   39   40   36   35
                                                                 
     6s_d    29   30   38   37   34   33
                                                                 

     Band symmetry, O_h (m-3m)  point group:

     e(  1 -  1) =     -5.76076  eV     1   --> A_1g G_1   G_1+
     e(  2 -  4) =      6.19810  eV     3   --> T_2g G_25' G_5+
     e(  5 -  7) =      8.76150  eV     3   --> T_1u G_15  G_4-
     e(  8 -  8) =      9.55742  eV     1   --> A_2u G_2'  G_2-

 **************************************************************************

 **************************************************************************

                    xk=(   0.00000,   0.00000,   0.20000  )

     point group C_4v (4mm) 
     there are  5 classes
     the character table:

       E     2C4   C2    2s_v  2s_d 
A_1    1.00  1.00  1.00  1.00  1.00
A_2    1.00  1.00  1.00 -1.00 -1.00
B_1    1.00 -1.00  1.00  1.00 -1.00
B_2    1.00 -1.00  1.00 -1.00  1.00
E      2.00  0.00 -2.00  0.00  0.00

     the symmetry operations in each class and the name of the first element:

     E        1
                                                                 
     2C4      3    4
                                                                 
     C2       2
                                                                 
     2s_v     5    6
                                                                 
     2s_d     7    8
                                                                 

     Band symmetry, C_4v (4mm)  point group:

     e(  1 -  1) =     -5.58597  eV     1   --> A_1  G_1 D_1   
     e(  2 -  2) =      5.25950  eV     1   --> B_2  G_4 D_2'  
     e(  3 -  4) =      5.62145  eV     2   --> E    G_5 D_5   
     e(  5 -  5) =      8.38334  eV     1   --> A_1  G_1 D_1   
     e(  6 -  7) =      9.55245  eV     2   --> E    G_5 D_5   
     e(  8 -  8) =     10.38445  eV     1   --> B_2  G_4 D_2'  

 **************************************************************************

 **************************************************************************

                    xk=(   0.00000,   0.00000,   0.40000  )

     Band symmetry, C_4v (4mm)  point group:

     e(  1 -  1) =     -5.06551  eV     1   --> A_1  G_1 D_1   
     e(  2 -  2) =      3.57448  eV     1   --> B_2  G_4 D_2'  
     e(  3 -  4) =      4.70984  eV     2   --> E    G_5 D_5   
     e(  5 -  5) =      7.66169  eV     1   --> A_1  G_1 D_1   
     e(  6 -  6) =     10.08942  eV     1   --> B_2  G_4 D_2'  
     e(  7 -  8) =     11.09257  eV     2   --> E    G_5 D_5   

 **************************************************************************

 **************************************************************************

                    xk=(   0.00000,   0.00000,   0.60000  )

     Band symmetry, C_4v (4mm)  point group:

     e(  1 -  1) =     -4.21200  eV     1   --> A_1  G_1 D_1   
     e(  2 -  2) =      1.78257  eV     1   --> B_2  G_4 D_2'  
     e(  3 -  4) =      3.96843  eV     2   --> E    G_5 D_5   
     e(  5 -  5) =      7.06270  eV     1   --> A_1  G_1 D_1   
     e(  6 -  6) =      8.61675  eV     1   --> B_2  G_4 D_2'  
     e(  7 -  8) =     12.85063  eV     2   --> E    G_5 D_5   

 **************************************************************************

 **************************************************************************

                    xk=(   0.00000,   0.00000,   0.80000  )

     Band symmetry, C_4v (4mm)  point group:

     e(  1 -  1) =     -3.04941  eV     1   --> A_1  G_1 D_1   
     e(  2 -  2) =      0.02060  eV     1   --> B_2  G_4 D_2'  
     e(  3 -  4) =      3.50340  eV     2   --> E    G_5 D_5   
     e(  5 -  5) =      6.78224  eV     1   --> A_1  G_1 D_1   
     e(  6 -  6) =      7.51340  eV     1   --> B_2  G_4 D_2'  
     e(  7 -  8) =     14.70899  eV     2   --> E    G_5 D_5   

 **************************************************************************

 **************************************************************************

                    xk=(   0.00000,   0.00000,   1.00000  )

     zone border point and non-symmorphic group 
     symmetry decomposition not available

 **************************************************************************

 **************************************************************************

                    xk=(   0.00000,   0.10000,   1.00000  )

     zone border point and non-symmorphic group 
     symmetry decomposition not available

 **************************************************************************

 **************************************************************************

                    xk=(   0.00000,   0.20000,   1.00000  )

     zone border point and non-symmorphic group 
     symmetry decomposition not available

 **************************************************************************

 **************************************************************************

                    xk=(   0.00000,   0.30000,   1.00000  )

     zone border point and non-symmorphic group 
     symmetry decomposition not available

 **************************************************************************

 **************************************************************************

                    xk=(   0.00000,   0.40000,   1.00000  )

     zone border point and non-symmorphic group 
     symmetry decomposition not available

 **************************************************************************

 **************************************************************************

                    xk=(   0.00000,   0.50000,   1.00000  )

     zone border point and non-symmorphic group 
     symmetry decomposition not available

 **************************************************************************

 **************************************************************************

                    xk=(   0.00000,   0.60000,   1.00000  )

     zone border point and non-symmorphic group 
     symmetry decomposition not available

 **************************************************************************

 **************************************************************************

                    xk=(   0.00000,   0.70000,   1.00000  )

     zone border point and non-symmorphic group 
     symmetry decomposition not available

 **************************************************************************

 **************************************************************************

                    xk=(   0.00000,   0.80000,   1.00000  )

     zone border point and non-symmorphic group 
     symmetry decomposition not available

 **************************************************************************

 **************************************************************************

                    xk=(   0.00000,   0.90000,   1.00000  )

     zone border point and non-symmorphic group 
     symmetry decomposition not available

 **************************************************************************

 **************************************************************************

                    xk=(   0.00000,   1.00000,   1.00000  )

     zone border point and non-symmorphic group 
     symmetry decomposition not available

 **************************************************************************

 **************************************************************************

                    xk=(   0.00000,   0.80000,   0.80000  )

     point group C_2v (mm2) 
     there are  4 classes
     the character table:

       E     C2    s_v   s_v' 
A_1    1.00  1.00  1.00  1.00
A_2    1.00  1.00 -1.00 -1.00
B_1    1.00 -1.00  1.00 -1.00
B_2    1.00 -1.00 -1.00  1.00

     the symmetry operations in each class and the name of the first element:

     E        1
                                                                 
     C2       2
                                                                 
     s_v      4
                                                                 
     s_v'     3
                                                                 

     Band symmetry, C_2v (mm2)  point group:

     e(  1 -  1) =     -1.84503  eV     1   --> A_1  D_1  S_1  
     e(  2 -  2) =     -1.23997  eV     1   --> B_1  D_3  S_3  
     e(  3 -  3) =      2.13530  eV     1   --> A_1  D_1  S_1  
     e(  4 -  4) =      3.62208  eV     1   --> A_2  D_2  S_2  
     e(  5 -  5) =      7.23125  eV     1   --> B_1  D_3  S_3  
     e(  6 -  6) =      9.35318  eV     1   --> A_1  D_1  S_1  
     e(  7 -  7) =     14.29484  eV     1   --> B_2  D_4  S_4  
     e(  8 -  8) =     14.87050  eV     1   --> A_1  D_1  S_1  

 **************************************************************************

 **************************************************************************

                    xk=(   0.00000,   0.60000,   0.60000  )

     Band symmetry, C_2v (mm2)  point group:

     e(  1 -  1) =     -2.96850  eV     1   --> A_1  D_1  S_1  
     e(  2 -  2) =     -0.11528  eV     1   --> B_1  D_3  S_3  
     e(  3 -  3) =      1.93467  eV     1   --> A_1  D_1  S_1  
     e(  4 -  4) =      4.38211  eV     1   --> A_2  D_2  S_2  
     e(  5 -  5) =      8.10946  eV     1   --> B_1  D_3  S_3  
     e(  6 -  6) =     11.94844  eV     1   --> B_2  D_4  S_4  
     e(  7 -  7) =     12.25097  eV     1   --> A_1  D_1  S_1  
     e(  8 -  8) =     13.04810  eV     1   --> B_1  D_3  S_3  

 **************************************************************************

 **************************************************************************

                    xk=(   0.00000,   0.40000,   0.40000  )

     Band symmetry, C_2v (mm2)  point group:

     e(  1 -  1) =     -4.41241  eV     1   --> A_1  D_1  S_1  
     e(  2 -  2) =      1.72287  eV     1   --> B_1  D_3  S_3  
     e(  3 -  3) =      3.19843  eV     1   --> A_1  D_1  S_1  
     e(  4 -  4) =      5.35208  eV     1   --> A_2  D_2  S_2  
     e(  5 -  5) =      9.09213  eV     1   --> B_1  D_3  S_3  
     e(  6 -  6) =     10.19195  eV     1   --> B_2  D_4  S_4  
     e(  7 -  7) =     10.51201  eV     1   --> A_1  D_1  S_1  
     e(  8 -  8) =     11.93950  eV     1   --> B_1  D_3  S_3  

 **************************************************************************

 **************************************************************************

                    xk=(   0.00000,   0.20000,   0.20000  )

     Band symmetry, C_2v (mm2)  point group:

     e(  1 -  1) =     -5.41336  eV     1   --> A_1  D_1  S_1  
     e(  2 -  2) =      4.16749  eV     1   --> B_1  D_3  S_3  
     e(  3 -  3) =      5.03780  eV     1   --> A_1  D_1  S_1  
     e(  4 -  4) =      6.02112  eV     1   --> A_2  D_2  S_2  
     e(  5 -  5) =      9.12072  eV     1   --> B_2  D_4  S_4  
     e(  6 -  6) =      9.18093  eV     1   --> B_1  D_3  S_3  
     e(  7 -  7) =      9.31258  eV     1   --> A_1  D_1  S_1  
     e(  8 -  8) =     11.39580  eV     1   --> B_1  D_3  S_3  

 **************************************************************************

 **************************************************************************

                    xk=(   0.00000,   0.00000,   0.00000  )

     point group O_h (m-3m) 
     there are 10 classes
     the character table:

       E     8C3   3C2   6C4   6C2'  i     8S6   3s_h  6S4   6s_d 
A_1g   1.00  1.00  1.00  1.00  1.00  1.00  1.00  1.00  1.00  1.00
A_2g   1.00  1.00  1.00 -1.00 -1.00  1.00  1.00  1.00 -1.00 -1.00
E_g    2.00 -1.00  2.00  0.00  0.00  2.00 -1.00  2.00  0.00  0.00
T_1g   3.00  0.00 -1.00  1.00 -1.00  3.00  0.00 -1.00  1.00 -1.00
T_2g   3.00  0.00 -1.00 -1.00  1.00  3.00  0.00 -1.00 -1.00  1.00
A_1u   1.00  1.00  1.00  1.00  1.00 -1.00 -1.00 -1.00 -1.00 -1.00
A_2u   1.00  1.00  1.00 -1.00 -1.00 -1.00 -1.00 -1.00  1.00  1.00
E_u    2.00 -1.00  2.00  0.00  0.00 -2.00  1.00 -2.00  0.00  0.00
T_1u   3.00  0.00 -1.00  1.00 -1.00 -3.00  0.00  1.00 -1.00  1.00
T_2u   3.00  0.00 -1.00 -1.00  1.00 -3.00  0.00  1.00  1.00 -1.00

     the symmetry operations in each class and the name of the first element:

     E        1
                                                                 
     8C3     17   19   20   18   24   21   22   23
                                                                 
     3C2      2    4    3
                                                                 
     6C4      7    8   15   16   12   11
                                                                 
     6C2'     5    6   14   13   10    9
                                                                 
     i       25
                                                                 
     8S6     41   43   44   42   48   45   46   47
                                                                 
     3s_h    26   28   27
                                                                 
     6S4     31   32   39   40   36   35
                                                                 
     6s_d    29   30   38   37   34   33
                                                                 

     Band symmetry, O_h (m-3m)  point group:

     e(  1 -  1) =     -5.76076  eV     1   --> A_1g G_1   G_1+
     e(  2 -  4) =      6.19810  eV     3   --> T_2g G_25' G_5+
     e(  5 -  7) =      8.76150  eV     3   --> T_1u G_15  G_4-
     e(  8 -  8) =      9.55742  eV     1   --> A_2u G_2'  G_2-

 **************************************************************************

     BANDS        :      0.69s CPU      0.87s WALL


   This run was terminated on:  18: 9:54   1Oct2024            

=------------------------------------------------------------------------------=
   JOB DONE.
=------------------------------------------------------------------------------=
