
     Program BANDS v.7.3.1 starts on  5Oct2024 at 23:54:25 

     This program is part of the open-source Quantum ESPRESSO suite
     for quantum simulation of materials; please cite
         "P. Giannozzi et al., J. Phys.:Condens. Matter 21 395502 (2009);
         "P. Giannozzi et al., J. Phys.:Condens. Matter 29 465901 (2017);
         "P. Giannozzi et al., J. Chem. Phys. 152 154105 (2020);
          URL http://www.quantum-espresso.org", 
     in publications or presentations arising from this work. More details at
     http://www.quantum-espresso.org/quote

     Parallel version (MPI & OpenMP), running on       2 processor cores
     Number of MPI processes:                 2
     Threads/MPI process:                     1

     MPI processes distributed on     1 nodes
     R & G space division:  proc/nbgrp/npool/nimage =       2
     508839 MiB available memory on the printing compute node when the environment starts


     Reading xml data from directory:

     ./diamond.save/

     IMPORTANT: XC functional enforced from input :
     Exchange-correlation= PBE
                           (   1   4   3   4   0   0   0)
     Any further DFT definition will be discarded
     Please, verify this is what you really want


     Parallelization info
     --------------------
     sticks:   dense  smooth     PW     G-vecs:    dense   smooth      PW
     Min         156      60     21                 1847      469      90
     Max         157      61     22                 1848      472      91
     Sum         313     121     43                 3695      941     181

     Using Slab Decomposition

     Reading collected, re-writing distributed wavefunctions
     high-symmetry point:  0.0000 0.0000 0.0000   x coordinate   0.0000
     high-symmetry point:  0.5000 0.0000 0.5000   x coordinate   0.7071
     high-symmetry point:  0.3750 0.3750 0.7500   x coordinate   1.1748
     high-symmetry point:  0.0000 0.0000 0.0000   x coordinate   2.0934
     high-symmetry point:  0.5000 0.5000 0.5000   x coordinate   2.9594
     high-symmetry point:  0.2500 0.2500 0.2500   x coordinate   3.3924

     Plottable bands (eV) written to file bands.dat.gnu
     Bands written to file bands.dat

 **************************************************************************

                    xk=(   0.00000,   0.00000,   0.00000  )

     point group O_h (m-3m) 
     there are 10 classes
     the character table:

       E     8C3   3C2   6C4   6C2'  i     8S6   3s_h  6S4   6s_d 
A_1g   1.00  1.00  1.00  1.00  1.00  1.00  1.00  1.00  1.00  1.00
A_2g   1.00  1.00  1.00 -1.00 -1.00  1.00  1.00  1.00 -1.00 -1.00
E_g    2.00 -1.00  2.00  0.00  0.00  2.00 -1.00  2.00  0.00  0.00
T_1g   3.00  0.00 -1.00  1.00 -1.00  3.00  0.00 -1.00  1.00 -1.00
T_2g   3.00  0.00 -1.00 -1.00  1.00  3.00  0.00 -1.00 -1.00  1.00
A_1u   1.00  1.00  1.00  1.00  1.00 -1.00 -1.00 -1.00 -1.00 -1.00
A_2u   1.00  1.00  1.00 -1.00 -1.00 -1.00 -1.00 -1.00  1.00  1.00
E_u    2.00 -1.00  2.00  0.00  0.00 -2.00  1.00 -2.00  0.00  0.00
T_1u   3.00  0.00 -1.00  1.00 -1.00 -3.00  0.00  1.00 -1.00  1.00
T_2u   3.00  0.00 -1.00 -1.00  1.00 -3.00  0.00  1.00  1.00 -1.00

     the symmetry operations in each class and the name of the first element:

     E        1
                                                                 
     8C3     17   19   20   18   24   21   22   23
                                                                 
     3C2      2    4    3
                                                                 
     6C4      7    8   15   16   12   11
                                                                 
     6C2'     5    6   14   13   10    9
                                                                 
     i       25
                                                                 
     8S6     41   43   44   42   48   45   46   47
                                                                 
     3s_h    26   28   27
                                                                 
     6S4     31   32   39   40   36   35
                                                                 
     6s_d    29   30   38   37   34   33
                                                                 

     Band symmetry, O_h (m-3m)  point group:

     e(  1 -  1) =     -7.92291  eV     1   --> A_1g G_1   G_1+
     e(  2 -  4) =     14.33876  eV     3   --> T_2g G_25' G_5+
     e(  5 -  7) =     20.72057  eV     3   --> T_1u G_15  G_4-
     e(  8 -  8) =     27.03039  eV     1   --> A_2u G_2'  G_2-

 **************************************************************************

 **************************************************************************

                    xk=(   0.05000,   0.00000,   0.05000  )

     point group C_2v (mm2) 
     there are  4 classes
     the character table:

       E     C2    s_v   s_v' 
A_1    1.00  1.00  1.00  1.00
A_2    1.00  1.00 -1.00 -1.00
B_1    1.00 -1.00  1.00 -1.00
B_2    1.00 -1.00 -1.00  1.00

     the symmetry operations in each class and the name of the first element:

     E        1
                                                                 
     C2       2
                                                                 
     s_v      3
                                                                 
     s_v'     4
                                                                 

     Band symmetry, C_2v (mm2)  point group:

     e(  1 -  1) =     -7.87314  eV     1   --> A_1  D_1  S_1  
     e(  2 -  2) =     14.04817  eV     1   --> B_2  D_4  S_4  
     e(  3 -  3) =     14.15215  eV     1   --> A_1  D_1  S_1  
     e(  4 -  4) =     14.31138  eV     1   --> A_2  D_2  S_2  
     e(  5 -  5) =     20.77190  eV     1   --> B_1  D_3  S_3  
     e(  6 -  6) =     20.83251  eV     1   --> A_1  D_1  S_1  
     e(  7 -  7) =     20.94486  eV     1   --> B_2  D_4  S_4  
     e(  8 -  8) =     27.11411  eV     1   --> B_2  D_4  S_4  

 **************************************************************************

 **************************************************************************

                    xk=(   0.10000,   0.00000,   0.10000  )

     Band symmetry, C_2v (mm2)  point group:

     e(  1 -  1) =     -7.78104  eV     1   --> A_1  D_1  S_1  
     e(  2 -  2) =     13.28160  eV     1   --> B_2  D_4  S_4  
     e(  3 -  3) =     13.59300  eV     1   --> A_1  D_1  S_1  
     e(  4 -  4) =     14.22721  eV     1   --> A_2  D_2  S_2  
     e(  5 -  5) =     20.89527  eV     1   --> B_1  D_3  S_3  
     e(  6 -  6) =     20.95599  eV     1   --> A_1  D_1  S_1  
     e(  7 -  7) =     21.42650  eV     1   --> B_2  D_4  S_4  
     e(  8 -  8) =     27.35117  eV     1   --> B_2  D_4  S_4  

 **************************************************************************

 **************************************************************************

                    xk=(   0.15000,   0.00000,   0.15000  )

     Band symmetry, C_2v (mm2)  point group:

     e(  1 -  1) =     -7.57268  eV     1   --> A_1  D_1  S_1  
     e(  2 -  2) =     12.24176  eV     1   --> B_2  D_4  S_4  
     e(  3 -  3) =     12.81186  eV     1   --> A_1  D_1  S_1  
     e(  4 -  4) =     14.08276  eV     1   --> A_2  D_2  S_2  
     e(  5 -  5) =     21.14815  eV     1   --> B_1  D_3  S_3  
     e(  6 -  6) =     21.42715  eV     1   --> A_1  D_1  S_1  
     e(  7 -  7) =     21.94531  eV     1   --> B_2  D_4  S_4  
     e(  8 -  8) =     27.69171  eV     1   --> B_2  D_4  S_4  

 **************************************************************************

 **************************************************************************

                    xk=(   0.20000,   0.00000,   0.20000  )

     Band symmetry, C_2v (mm2)  point group:

     e(  1 -  1) =     -7.24142  eV     1   --> A_1  D_1  S_1  
     e(  2 -  2) =     11.12609  eV     1   --> B_2  D_4  S_4  
     e(  3 -  3) =     11.90518  eV     1   --> A_1  D_1  S_1  
     e(  4 -  4) =     13.87227  eV     1   --> A_2  D_2  S_2  
     e(  5 -  5) =     21.50158  eV     1   --> B_1  D_3  S_3  
     e(  6 -  6) =     22.02249  eV     1   --> A_1  D_1  S_1  
     e(  7 -  7) =     22.50687  eV     1   --> B_2  D_4  S_4  
     e(  8 -  8) =     28.03548  eV     1   --> B_2  D_4  S_4  

 **************************************************************************

 **************************************************************************

                    xk=(   0.25000,   0.00000,   0.25000  )

     Band symmetry, C_2v (mm2)  point group:

     e(  1 -  1) =     -6.81422  eV     1   --> A_1  D_1  S_1  
     e(  2 -  2) =     10.16451  eV     1   --> B_2  D_4  S_4  
     e(  3 -  3) =     10.93270  eV     1   --> A_1  D_1  S_1  
     e(  4 -  4) =     13.61463  eV     1   --> A_2  D_2  S_2  
     e(  5 -  5) =     21.95408  eV     1   --> B_1  D_3  S_3  
     e(  6 -  6) =     22.68353  eV     1   --> A_1  D_1  S_1  
     e(  7 -  7) =     23.04157  eV     1   --> B_2  D_4  S_4  
     e(  8 -  8) =     28.27868  eV     1   --> B_2  D_4  S_4  

 **************************************************************************

 **************************************************************************

                    xk=(   0.30000,   0.00000,   0.30000  )

     Band symmetry, C_2v (mm2)  point group:

     e(  1 -  1) =     -6.34397  eV     1   --> A_1  D_1  S_1  
     e(  2 -  2) =      9.00235  eV     1   --> B_2  D_4  S_4  
     e(  3 -  3) =      9.93983  eV     1   --> A_1  D_1  S_1  
     e(  4 -  4) =     13.25847  eV     1   --> A_2  D_2  S_2  
     e(  5 -  5) =     22.16978  eV     1   --> B_1  D_3  S_3  
     e(  6 -  6) =     23.21241  eV     1   --> B_2  D_4  S_4  
     e(  7 -  7) =     23.40693  eV     1   --> A_1  D_1  S_1  
     e(  8 -  8) =     28.35386  eV     1   --> B_2  D_4  S_4  

 **************************************************************************

 **************************************************************************

                    xk=(   0.35000,   0.00000,   0.35000  )

     Band symmetry, C_2v (mm2)  point group:

     e(  1 -  1) =     -5.73134  eV     1   --> A_1  D_1  S_1  
     e(  2 -  2) =      8.14787  eV     1   --> B_2  D_4  S_4  
     e(  3 -  3) =      9.01264  eV     1   --> A_1  D_1  S_1  
     e(  4 -  4) =     12.99863  eV     1   --> A_2  D_2  S_2  
     e(  5 -  5) =     22.80170  eV     1   --> B_1  D_3  S_3  
     e(  6 -  6) =     23.42936  eV     1   --> B_2  D_4  S_4  
     e(  7 -  7) =     24.38713  eV     1   --> A_1  D_1  S_1  
     e(  8 -  8) =     28.38125  eV     1   --> B_2  D_4  S_4  

 **************************************************************************

 **************************************************************************

                    xk=(   0.40000,   0.00000,   0.40000  )

     Band symmetry, C_2v (mm2)  point group:

     e(  1 -  1) =     -5.11610  eV     1   --> A_1  D_1  S_1  
     e(  2 -  2) =      7.05859  eV     1   --> B_2  D_4  S_4  
     e(  3 -  3) =      8.02629  eV     1   --> A_1  D_1  S_1  
     e(  4 -  4) =     12.40712  eV     1   --> A_2  D_2  S_2  
     e(  5 -  5) =     23.18200  eV     1   --> B_2  D_4  S_4  
     e(  6 -  6) =     23.45152  eV     1   --> B_1  D_3  S_3  
     e(  7 -  7) =     25.19966  eV     1   --> A_1  D_1  S_1  
     e(  8 -  8) =     28.12086  eV     1   --> B_2  D_4  S_4  

 **************************************************************************

 **************************************************************************

                    xk=(   0.45000,   0.00000,   0.45000  )

     Band symmetry, C_2v (mm2)  point group:

     e(  1 -  1) =     -4.34204  eV     1   --> A_1  D_1  S_1  
     e(  2 -  2) =      6.10164  eV     1   --> B_2  D_4  S_4  
     e(  3 -  3) =      7.14210  eV     1   --> A_1  D_1  S_1  
     e(  4 -  4) =     11.88415  eV     1   --> A_2  D_2  S_2  
     e(  5 -  5) =     22.96709  eV     1   --> B_2  D_4  S_4  
     e(  6 -  6) =     24.26200  eV     1   --> B_1  D_3  S_3  
     e(  7 -  7) =     26.43304  eV     1   --> A_1  D_1  S_1  
     e(  8 -  8) =     28.32238  eV     1   --> B_2  D_4  S_4  

 **************************************************************************

 **************************************************************************

                    xk=(   0.50000,   0.00000,   0.50000  )

     Band symmetry, C_2v (mm2)  point group:

     e(  1 -  1) =     -3.49495  eV     1   --> A_1  D_1  S_1  
     e(  2 -  2) =      5.18847  eV     1   --> B_2  D_4  S_4  
     e(  3 -  3) =      6.33278  eV     1   --> A_1  D_1  S_1  
     e(  4 -  4) =     11.32927  eV     1   --> A_2  D_2  S_2  
     e(  5 -  5) =     22.39316  eV     1   --> B_2  D_4  S_4  
     e(  6 -  6) =     25.12913  eV     1   --> B_1  D_3  S_3  
     e(  7 -  7) =     27.40329  eV     1   --> A_1  D_1  S_1  
     e(  8 -  8) =     28.66339  eV     1   --> B_2  D_4  S_4  

 **************************************************************************

 **************************************************************************

                    xk=(   0.48750,   0.03750,   0.52500  )

     point group C_1 (1)    
     there are  1 classes
     the character table:

       E    
A      1.00

     the symmetry operations in each class and the name of the first element:

     E        1
                                                                 

     Band symmetry, C_1 (1)     point group:

     e(  1 -  1) =     -3.36597  eV     1   --> A              
     e(  2 -  2) =      4.84527  eV     1   --> A              
     e(  3 -  3) =      6.48781  eV     1   --> A              
     e(  4 -  4) =     11.22932  eV     1   --> A              
     e(  5 -  5) =     22.37322  eV     1   --> A              
     e(  6 -  6) =     25.11584  eV     1   --> A              
     e(  7 -  7) =     27.38874  eV     1   --> A              
     e(  8 -  8) =     28.85581  eV     1   --> A              

 **************************************************************************

 **************************************************************************

                    xk=(   0.47500,   0.07500,   0.55000  )

     Band symmetry, C_1 (1)     point group:

     e(  1 -  1) =     -3.20146  eV     1   --> A              
     e(  2 -  2) =      4.39077  eV     1   --> A              
     e(  3 -  3) =      6.90531  eV     1   --> A              
     e(  4 -  4) =     11.12103  eV     1   --> A              
     e(  5 -  5) =     22.50851  eV     1   --> A              
     e(  6 -  6) =     24.94703  eV     1   --> A              
     e(  7 -  7) =     27.32350  eV     1   --> A              
     e(  8 -  8) =     29.25507  eV     1   --> A              

 **************************************************************************

 **************************************************************************

                    xk=(   0.46250,   0.11250,   0.57500  )

     Band symmetry, C_1 (1)     point group:

     e(  1 -  1) =     -3.01746  eV     1   --> A              
     e(  2 -  2) =      3.78653  eV     1   --> A              
     e(  3 -  3) =      7.36267  eV     1   --> A              
     e(  4 -  4) =     10.87229  eV     1   --> A              
     e(  5 -  5) =     22.62684  eV     1   --> A              
     e(  6 -  6) =     24.45080  eV     1   --> A              
     e(  7 -  7) =     27.17520  eV     1   --> A              
     e(  8 -  8) =     29.47226  eV     1   --> A              

 **************************************************************************

 **************************************************************************

                    xk=(   0.45000,   0.15000,   0.60000  )

     Band symmetry, C_1 (1)     point group:

     e(  1 -  1) =     -2.79865  eV     1   --> A              
     e(  2 -  2) =      3.25306  eV     1   --> A              
     e(  3 -  3) =      7.80687  eV     1   --> A              
     e(  4 -  4) =     10.64619  eV     1   --> A              
     e(  5 -  5) =     22.83858  eV     1   --> A              
     e(  6 -  6) =     23.92166  eV     1   --> A              
     e(  7 -  7) =     27.15021  eV     1   --> A              
     e(  8 -  8) =     29.60178  eV     1   --> A              

 **************************************************************************

 **************************************************************************

                    xk=(   0.43750,   0.18750,   0.62500  )

     Band symmetry, C_1 (1)     point group:

     e(  1 -  1) =     -2.54293  eV     1   --> A              
     e(  2 -  2) =      2.70920  eV     1   --> A              
     e(  3 -  3) =      8.23393  eV     1   --> A              
     e(  4 -  4) =     10.40217  eV     1   --> A              
     e(  5 -  5) =     22.87152  eV     1   --> A              
     e(  6 -  6) =     23.65514  eV     1   --> A              
     e(  7 -  7) =     27.14216  eV     1   --> A              
     e(  8 -  8) =     29.66514  eV     1   --> A              

 **************************************************************************

 **************************************************************************

                    xk=(   0.42500,   0.22500,   0.65000  )

     Band symmetry, C_1 (1)     point group:

     e(  1 -  1) =     -2.26773  eV     1   --> A              
     e(  2 -  2) =      2.21549  eV     1   --> A              
     e(  3 -  3) =      8.57222  eV     1   --> A              
     e(  4 -  4) =     10.20005  eV     1   --> A              
     e(  5 -  5) =     22.46371  eV     1   --> A              
     e(  6 -  6) =     23.94100  eV     1   --> A              
     e(  7 -  7) =     27.10134  eV     1   --> A              
     e(  8 -  8) =     29.70394  eV     1   --> A              

 **************************************************************************

 **************************************************************************

                    xk=(   0.41250,   0.26250,   0.67500  )

     Band symmetry, C_1 (1)     point group:

     e(  1 -  1) =     -1.98474  eV     1   --> A              
     e(  2 -  2) =      1.76910  eV     1   --> A              
     e(  3 -  3) =      8.71012  eV     1   --> A              
     e(  4 -  4) =     10.06777  eV     1   --> A              
     e(  5 -  5) =     22.05081  eV     1   --> A              
     e(  6 -  6) =     24.32921  eV     1   --> A              
     e(  7 -  7) =     27.02389  eV     1   --> A              
     e(  8 -  8) =     29.71041  eV     1   --> A              

 **************************************************************************

 **************************************************************************

                    xk=(   0.40000,   0.30000,   0.70000  )

     Band symmetry, C_1 (1)     point group:

     e(  1 -  1) =     -1.72561  eV     1   --> A              
     e(  2 -  2) =      1.42577  eV     1   --> A              
     e(  3 -  3) =      8.64079  eV     1   --> A              
     e(  4 -  4) =     10.12094  eV     1   --> A              
     e(  5 -  5) =     21.65802  eV     1   --> A              
     e(  6 -  6) =     24.83708  eV     1   --> A              
     e(  7 -  7) =     26.78327  eV     1   --> A              
     e(  8 -  8) =     29.82181  eV     1   --> A              

 **************************************************************************

 **************************************************************************

                    xk=(   0.38750,   0.33750,   0.72500  )

     Band symmetry, C_1 (1)     point group:

     e(  1 -  1) =     -1.48138  eV     1   --> A              
     e(  2 -  2) =      1.23081  eV     1   --> A              
     e(  3 -  3) =      8.44136  eV     1   --> A              
     e(  4 -  4) =     10.34424  eV     1   --> A              
     e(  5 -  5) =     21.46230  eV     1   --> A              
     e(  6 -  6) =     25.48875  eV     1   --> A              
     e(  7 -  7) =     26.53483  eV     1   --> A              
     e(  8 -  8) =     30.05971  eV     1   --> A              

 **************************************************************************

 **************************************************************************

                    xk=(   0.37500,   0.37500,   0.75000  )

     point group C_s (m)    
     there are  2 classes
     the character table:

       E     s    
A'     1.00  1.00
A''    1.00 -1.00

     the symmetry operations in each class and the name of the first element:

     E        1
                                                                 
     s        2
                                                                 

     Band symmetry, C_s (m)     point group:

     e(  1 -  1) =     -1.38459  eV     1   --> A'             
     e(  2 -  2) =      1.20693  eV     1   --> A'             
     e(  3 -  3) =      8.17730  eV     1   --> A'             
     e(  4 -  4) =     10.42331  eV     1   --> A''            
     e(  5 -  5) =     21.40514  eV     1   --> A'             
     e(  6 -  6) =     25.93283  eV     1   --> A''            
     e(  7 -  7) =     26.31070  eV     1   --> A'             
     e(  8 -  8) =     30.33680  eV     1   --> A'             

 **************************************************************************

 **************************************************************************

                    xk=(   0.33750,   0.33750,   0.67500  )

     Band symmetry, C_s (m)     point group:

     e(  1 -  1) =     -2.04100  eV     1   --> A'             
     e(  2 -  2) =      1.67254  eV     1   --> A'             
     e(  3 -  3) =      9.03517  eV     1   --> A'             
     e(  4 -  4) =     10.37347  eV     1   --> A''            
     e(  5 -  5) =     21.36580  eV     1   --> A'             
     e(  6 -  6) =     25.79153  eV     1   --> A''            
     e(  7 -  7) =     25.84131  eV     1   --> A'             
     e(  8 -  8) =     29.44569  eV     1   --> A'             

 **************************************************************************

 **************************************************************************

                    xk=(   0.30000,   0.30000,   0.60000  )

     Band symmetry, C_s (m)     point group:

     e(  1 -  1) =     -3.15154  eV     1   --> A'             
     e(  2 -  2) =      2.87348  eV     1   --> A'             
     e(  3 -  3) =      9.92386  eV     1   --> A'             
     e(  4 -  4) =     10.46855  eV     1   --> A''            
     e(  5 -  5) =     21.41441  eV     1   --> A'             
     e(  6 -  6) =     25.39422  eV     1   --> A'             
     e(  7 -  7) =     25.58951  eV     1   --> A''            
     e(  8 -  8) =     28.68508  eV     1   --> A'             

 **************************************************************************

 **************************************************************************

                    xk=(   0.26250,   0.26250,   0.52500  )

     Band symmetry, C_s (m)     point group:

     e(  1 -  1) =     -4.22217  eV     1   --> A'             
     e(  2 -  2) =      4.36737  eV     1   --> A'             
     e(  3 -  3) =     10.71502  eV     1   --> A''            
     e(  4 -  4) =     10.86776  eV     1   --> A'             
     e(  5 -  5) =     21.55424  eV     1   --> A'             
     e(  6 -  6) =     24.97130  eV     1   --> A'             
     e(  7 -  7) =     25.40387  eV     1   --> A''            
     e(  8 -  8) =     28.27969  eV     1   --> A'             

 **************************************************************************

 **************************************************************************

                    xk=(   0.22500,   0.22500,   0.45000  )

     Band symmetry, C_s (m)     point group:

     e(  1 -  1) =     -5.22064  eV     1   --> A'             
     e(  2 -  2) =      5.91417  eV     1   --> A'             
     e(  3 -  3) =     11.09654  eV     1   --> A''            
     e(  4 -  4) =     11.71344  eV     1   --> A'             
     e(  5 -  5) =     21.53816  eV     1   --> A'             
     e(  6 -  6) =     24.41407  eV     1   --> A'             
     e(  7 -  7) =     24.87666  eV     1   --> A''            
     e(  8 -  8) =     28.08116  eV     1   --> A'             

 **************************************************************************

 **************************************************************************

                    xk=(   0.18750,   0.18750,   0.37500  )

     Band symmetry, C_s (m)     point group:

     e(  1 -  1) =     -6.05690  eV     1   --> A'             
     e(  2 -  2) =      7.51108  eV     1   --> A'             
     e(  3 -  3) =     11.59442  eV     1   --> A''            
     e(  4 -  4) =     12.32240  eV     1   --> A'             
     e(  5 -  5) =     21.33489  eV     1   --> A'             
     e(  6 -  6) =     23.68470  eV     1   --> A'             
     e(  7 -  7) =     24.24229  eV     1   --> A''            
     e(  8 -  8) =     28.13439  eV     1   --> A'             

 **************************************************************************

 **************************************************************************

                    xk=(   0.15000,   0.15000,   0.30000  )

     Band symmetry, C_s (m)     point group:

     e(  1 -  1) =     -6.74624  eV     1   --> A'             
     e(  2 -  2) =      9.20415  eV     1   --> A'             
     e(  3 -  3) =     12.15855  eV     1   --> A''            
     e(  4 -  4) =     13.01875  eV     1   --> A'             
     e(  5 -  5) =     21.14710  eV     1   --> A'             
     e(  6 -  6) =     23.00285  eV     1   --> A'             
     e(  7 -  7) =     23.39660  eV     1   --> A''            
     e(  8 -  8) =     28.28401  eV     1   --> A'             

 **************************************************************************

 **************************************************************************

                    xk=(   0.11250,   0.11250,   0.22500  )

     Band symmetry, C_s (m)     point group:

     e(  1 -  1) =     -7.29249  eV     1   --> A'             
     e(  2 -  2) =     10.84665  eV     1   --> A'             
     e(  3 -  3) =     12.83667  eV     1   --> A''            
     e(  4 -  4) =     13.50624  eV     1   --> A'             
     e(  5 -  5) =     20.96051  eV     1   --> A'             
     e(  6 -  6) =     22.30757  eV     1   --> A'             
     e(  7 -  7) =     22.45169  eV     1   --> A''            
     e(  8 -  8) =     28.00979  eV     1   --> A'             

 **************************************************************************

 **************************************************************************

                    xk=(   0.07500,   0.07500,   0.15000  )

     Band symmetry, C_s (m)     point group:

     e(  1 -  1) =     -7.66399  eV     1   --> A'             
     e(  2 -  2) =     12.48694  eV     1   --> A'             
     e(  3 -  3) =     13.55813  eV     1   --> A''            
     e(  4 -  4) =     13.95535  eV     1   --> A'             
     e(  5 -  5) =     20.76014  eV     1   --> A'             
     e(  6 -  6) =     21.57378  eV     1   --> A'             
     e(  7 -  7) =     21.65660  eV     1   --> A''            
     e(  8 -  8) =     27.54893  eV     1   --> A'             

 **************************************************************************

 **************************************************************************

                    xk=(   0.03750,   0.03750,   0.07500  )

     Band symmetry, C_s (m)     point group:

     e(  1 -  1) =     -7.83892  eV     1   --> A'             
     e(  2 -  2) =     13.81999  eV     1   --> A'             
     e(  3 -  3) =     14.12088  eV     1   --> A''            
     e(  4 -  4) =     14.24229  eV     1   --> A'             
     e(  5 -  5) =     20.76388  eV     1   --> A'             
     e(  6 -  6) =     21.00445  eV     1   --> A''            
     e(  7 -  7) =     21.02932  eV     1   --> A'             
     e(  8 -  8) =     27.17055  eV     1   --> A'             

 **************************************************************************

 **************************************************************************

                    xk=(   0.00000,   0.00000,   0.00000  )

     point group O_h (m-3m) 
     there are 10 classes
     the character table:

       E     8C3   3C2   6C4   6C2'  i     8S6   3s_h  6S4   6s_d 
A_1g   1.00  1.00  1.00  1.00  1.00  1.00  1.00  1.00  1.00  1.00
A_2g   1.00  1.00  1.00 -1.00 -1.00  1.00  1.00  1.00 -1.00 -1.00
E_g    2.00 -1.00  2.00  0.00  0.00  2.00 -1.00  2.00  0.00  0.00
T_1g   3.00  0.00 -1.00  1.00 -1.00  3.00  0.00 -1.00  1.00 -1.00
T_2g   3.00  0.00 -1.00 -1.00  1.00  3.00  0.00 -1.00 -1.00  1.00
A_1u   1.00  1.00  1.00  1.00  1.00 -1.00 -1.00 -1.00 -1.00 -1.00
A_2u   1.00  1.00  1.00 -1.00 -1.00 -1.00 -1.00 -1.00  1.00  1.00
E_u    2.00 -1.00  2.00  0.00  0.00 -2.00  1.00 -2.00  0.00  0.00
T_1u   3.00  0.00 -1.00  1.00 -1.00 -3.00  0.00  1.00 -1.00  1.00
T_2u   3.00  0.00 -1.00 -1.00  1.00 -3.00  0.00  1.00  1.00 -1.00

     the symmetry operations in each class and the name of the first element:

     E        1
                                                                 
     8C3     17   19   20   18   24   21   22   23
                                                                 
     3C2      2    4    3
                                                                 
     6C4      7    8   15   16   12   11
                                                                 
     6C2'     5    6   14   13   10    9
                                                                 
     i       25
                                                                 
     8S6     41   43   44   42   48   45   46   47
                                                                 
     3s_h    26   28   27
                                                                 
     6S4     31   32   39   40   36   35
                                                                 
     6s_d    29   30   38   37   34   33
                                                                 

     Band symmetry, O_h (m-3m)  point group:

     e(  1 -  1) =     -7.92291  eV     1   --> A_1g G_1   G_1+
     e(  2 -  4) =     14.33876  eV     3   --> T_2g G_25' G_5+
     e(  5 -  7) =     20.72057  eV     3   --> T_1u G_15  G_4-
     e(  8 -  8) =     27.03039  eV     1   --> A_2u G_2'  G_2-

 **************************************************************************

 **************************************************************************

                    xk=(   0.05000,   0.05000,   0.05000  )

     point group C_3v (3m)  
     there are  3 classes
     the character table:

       E     2C3   3s_v 
A_1    1.00  1.00  1.00
A_2    1.00  1.00 -1.00
E      2.00 -1.00  0.00

     the symmetry operations in each class and the name of the first element:

     E        1
                                                                 
     2C3      2    3
                                                                 
     3s_v     4    5    6
                                                                 

     Band symmetry, C_3v (3m)   point group:

     e(  1 -  1) =     -7.84825  eV     1   --> A_1  L_1       
     e(  2 -  2) =     13.83195  eV     1   --> A_1  L_1       
     e(  3 -  4) =     14.22038  eV     2   --> E    L_3       
     e(  5 -  6) =     20.88581  eV     2   --> E    L_3       
     e(  7 -  7) =     20.95663  eV     1   --> A_1  L_1       
     e(  8 -  8) =     27.15768  eV     1   --> A_1  L_1       

 **************************************************************************

 **************************************************************************

                    xk=(   0.10000,   0.10000,   0.10000  )

     Band symmetry, C_3v (3m)   point group:

     e(  1 -  1) =     -7.67310  eV     1   --> A_1  L_1       
     e(  2 -  2) =     12.50913  eV     1   --> A_1  L_1       
     e(  3 -  4) =     13.90674  eV     2   --> E    L_3       
     e(  5 -  5) =     21.28175  eV     1   --> A_1  L_1       
     e(  6 -  7) =     21.31018  eV     2   --> E    L_3       
     e(  8 -  8) =     27.53548  eV     1   --> A_1  L_1       

 **************************************************************************

 **************************************************************************

                    xk=(   0.15000,   0.15000,   0.15000  )

     Band symmetry, C_3v (3m)   point group:

     e(  1 -  1) =     -7.39663  eV     1   --> A_1  L_1       
     e(  2 -  2) =     10.84871  eV     1   --> A_1  L_1       
     e(  3 -  4) =     13.45078  eV     2   --> E    L_3       
     e(  5 -  6) =     21.67094  eV     2   --> E    L_3       
     e(  7 -  7) =     21.70511  eV     1   --> A_1  L_1       
     e(  8 -  8) =     28.13127  eV     1   --> A_1  L_1       

 **************************************************************************

 **************************************************************************

                    xk=(   0.20000,   0.20000,   0.20000  )

     Band symmetry, C_3v (3m)   point group:

     e(  1 -  1) =     -6.90146  eV     1   --> A_1  L_1       
     e(  2 -  2) =      9.05702  eV     1   --> A_1  L_1       
     e(  3 -  4) =     12.99855  eV     2   --> E    L_3       
     e(  5 -  5) =     22.00584  eV     1   --> A_1  L_1       
     e(  6 -  7) =     22.25241  eV     2   --> E    L_3       
     e(  8 -  8) =     28.85147  eV     1   --> A_1  L_1       

 **************************************************************************

 **************************************************************************

                    xk=(   0.25000,   0.25000,   0.25000  )

     Band symmetry, C_3v (3m)   point group:

     e(  1 -  1) =     -6.27983  eV     1   --> A_1  L_1       
     e(  2 -  2) =      7.52173  eV     1   --> A_1  L_1       
     e(  3 -  4) =     12.67570  eV     2   --> E    L_3       
     e(  5 -  5) =     22.50931  eV     1   --> A_1  L_1       
     e(  6 -  7) =     22.76320  eV     2   --> E    L_3       
     e(  8 -  8) =     29.59175  eV     1   --> A_1  L_1       

 **************************************************************************

 **************************************************************************

                    xk=(   0.30000,   0.30000,   0.30000  )

     Band symmetry, C_3v (3m)   point group:

     e(  1 -  1) =     -5.51050  eV     1   --> A_1  L_1       
     e(  2 -  2) =      5.69172  eV     1   --> A_1  L_1       
     e(  3 -  4) =     12.30770  eV     2   --> E    L_3       
     e(  5 -  5) =     22.85816  eV     1   --> A_1  L_1       
     e(  6 -  7) =     23.06763  eV     2   --> E    L_3       
     e(  8 -  8) =     30.34105  eV     1   --> A_1  L_1       

 **************************************************************************

 **************************************************************************

                    xk=(   0.35000,   0.35000,   0.35000  )

     Band symmetry, C_3v (3m)   point group:

     e(  1 -  1) =     -4.65604  eV     1   --> A_1  L_1       
     e(  2 -  2) =      3.92445  eV     1   --> A_1  L_1       
     e(  3 -  4) =     11.98914  eV     2   --> E    L_3       
     e(  5 -  5) =     22.79809  eV     1   --> A_1  L_1       
     e(  6 -  7) =     23.13603  eV     2   --> E    L_3       
     e(  8 -  8) =     30.61701  eV     1   --> A_1  L_1       

 **************************************************************************

 **************************************************************************

                    xk=(   0.40000,   0.40000,   0.40000  )

     Band symmetry, C_3v (3m)   point group:

     e(  1 -  1) =     -3.66724  eV     1   --> A_1  L_1       
     e(  2 -  2) =      2.45617  eV     1   --> A_1  L_1       
     e(  3 -  4) =     11.78690  eV     2   --> E    L_3       
     e(  5 -  5) =     22.76121  eV     1   --> A_1  L_1       
     e(  6 -  7) =     23.24903  eV     2   --> E    L_3       
     e(  8 -  8) =     30.81695  eV     1   --> A_1  L_1       

 **************************************************************************

 **************************************************************************

                    xk=(   0.45000,   0.45000,   0.45000  )

     Band symmetry, C_3v (3m)   point group:

     e(  1 -  1) =     -2.67991  eV     1   --> A_1  L_1       
     e(  2 -  2) =      1.09157  eV     1   --> A_1  L_1       
     e(  3 -  4) =     11.65962  eV     2   --> E    L_3       
     e(  5 -  5) =     22.74294  eV     1   --> A_1  L_1       
     e(  6 -  7) =     23.23866  eV     2   --> E    L_3       
     e(  8 -  8) =     30.83739  eV     1   --> A_1  L_1       

 **************************************************************************

 **************************************************************************

                    xk=(   0.50000,   0.50000,   0.50000  )

     zone border point and non-symmorphic group 
     symmetry decomposition not available

 **************************************************************************

 **************************************************************************

                    xk=(   0.47500,   0.47500,   0.47500  )

     point group C_3v (3m)  
     there are  3 classes
     the character table:

       E     2C3   3s_v 
A_1    1.00  1.00  1.00
A_2    1.00  1.00 -1.00
E      2.00 -1.00  0.00

     the symmetry operations in each class and the name of the first element:

     E        1
                                                                 
     2C3      2    3
                                                                 
     3s_v     4    5    6
                                                                 

     Band symmetry, C_3v (3m)   point group:

     e(  1 -  1) =     -2.35001  eV     1   --> A_1  L_1       
     e(  2 -  2) =      0.59013  eV     1   --> A_1  L_1       
     e(  3 -  4) =     11.38888  eV     2   --> E    L_3       
     e(  5 -  5) =     22.66424  eV     1   --> A_1  L_1       
     e(  6 -  7) =     23.21656  eV     2   --> E    L_3       
     e(  8 -  8) =     30.72371  eV     1   --> A_1  L_1       

 **************************************************************************

 **************************************************************************

                    xk=(   0.45000,   0.45000,   0.45000  )

     Band symmetry, C_3v (3m)   point group:

     e(  1 -  1) =     -2.67991  eV     1   --> A_1  L_1       
     e(  2 -  2) =      1.09157  eV     1   --> A_1  L_1       
     e(  3 -  4) =     11.65962  eV     2   --> E    L_3       
     e(  5 -  5) =     22.74294  eV     1   --> A_1  L_1       
     e(  6 -  7) =     23.23866  eV     2   --> E    L_3       
     e(  8 -  8) =     30.83739  eV     1   --> A_1  L_1       

 **************************************************************************

 **************************************************************************

                    xk=(   0.42500,   0.42500,   0.42500  )

     Band symmetry, C_3v (3m)   point group:

     e(  1 -  1) =     -3.16057  eV     1   --> A_1  L_1       
     e(  2 -  2) =      1.72903  eV     1   --> A_1  L_1       
     e(  3 -  4) =     11.71171  eV     2   --> E    L_3       
     e(  5 -  5) =     22.74931  eV     1   --> A_1  L_1       
     e(  6 -  7) =     23.24510  eV     2   --> E    L_3       
     e(  8 -  8) =     30.83624  eV     1   --> A_1  L_1       

 **************************************************************************

 **************************************************************************

                    xk=(   0.40000,   0.40000,   0.40000  )

     Band symmetry, C_3v (3m)   point group:

     e(  1 -  1) =     -3.66724  eV     1   --> A_1  L_1       
     e(  2 -  2) =      2.45617  eV     1   --> A_1  L_1       
     e(  3 -  4) =     11.78690  eV     2   --> E    L_3       
     e(  5 -  5) =     22.76121  eV     1   --> A_1  L_1       
     e(  6 -  7) =     23.24903  eV     2   --> E    L_3       
     e(  8 -  8) =     30.81695  eV     1   --> A_1  L_1       

 **************************************************************************

 **************************************************************************

                    xk=(   0.37500,   0.37500,   0.37500  )

     Band symmetry, C_3v (3m)   point group:

     e(  1 -  1) =     -4.16938  eV     1   --> A_1  L_1       
     e(  2 -  2) =      3.24151  eV     1   --> A_1  L_1       
     e(  3 -  4) =     11.88490  eV     2   --> E    L_3       
     e(  5 -  5) =     22.77800  eV     1   --> A_1  L_1       
     e(  6 -  7) =     23.24440  eV     2   --> E    L_3       
     e(  8 -  8) =     30.76373  eV     1   --> A_1  L_1       

 **************************************************************************

 **************************************************************************

                    xk=(   0.35000,   0.35000,   0.35000  )

     Band symmetry, C_3v (3m)   point group:

     e(  1 -  1) =     -4.65604  eV     1   --> A_1  L_1       
     e(  2 -  2) =      3.92445  eV     1   --> A_1  L_1       
     e(  3 -  4) =     11.98914  eV     2   --> E    L_3       
     e(  5 -  5) =     22.79809  eV     1   --> A_1  L_1       
     e(  6 -  7) =     23.13603  eV     2   --> E    L_3       
     e(  8 -  8) =     30.61701  eV     1   --> A_1  L_1       

 **************************************************************************

 **************************************************************************

                    xk=(   0.32500,   0.32500,   0.32500  )

     Band symmetry, C_3v (3m)   point group:

     e(  1 -  1) =     -5.11458  eV     1   --> A_1  L_1       
     e(  2 -  2) =      4.77722  eV     1   --> A_1  L_1       
     e(  3 -  4) =     12.13017  eV     2   --> E    L_3       
     e(  5 -  5) =     22.82081  eV     1   --> A_1  L_1       
     e(  6 -  7) =     23.08154  eV     2   --> E    L_3       
     e(  8 -  8) =     30.44754  eV     1   --> A_1  L_1       

 **************************************************************************

 **************************************************************************

                    xk=(   0.30000,   0.30000,   0.30000  )

     Band symmetry, C_3v (3m)   point group:

     e(  1 -  1) =     -5.51050  eV     1   --> A_1  L_1       
     e(  2 -  2) =      5.69172  eV     1   --> A_1  L_1       
     e(  3 -  4) =     12.30770  eV     2   --> E    L_3       
     e(  5 -  5) =     22.85816  eV     1   --> A_1  L_1       
     e(  6 -  7) =     23.06763  eV     2   --> E    L_3       
     e(  8 -  8) =     30.34105  eV     1   --> A_1  L_1       

 **************************************************************************

 **************************************************************************

                    xk=(   0.27500,   0.27500,   0.27500  )

     Band symmetry, C_3v (3m)   point group:

     e(  1 -  1) =     -5.91083  eV     1   --> A_1  L_1       
     e(  2 -  2) =      6.60056  eV     1   --> A_1  L_1       
     e(  3 -  4) =     12.48859  eV     2   --> E    L_3       
     e(  5 -  5) =     22.87391  eV     1   --> A_1  L_1       
     e(  6 -  7) =     22.93778  eV     2   --> E    L_3       
     e(  8 -  8) =     30.04625  eV     1   --> A_1  L_1       

 **************************************************************************

 **************************************************************************

                    xk=(   0.25000,   0.25000,   0.25000  )

     Band symmetry, C_3v (3m)   point group:

     e(  1 -  1) =     -6.27983  eV     1   --> A_1  L_1       
     e(  2 -  2) =      7.52173  eV     1   --> A_1  L_1       
     e(  3 -  4) =     12.67570  eV     2   --> E    L_3       
     e(  5 -  5) =     22.50931  eV     1   --> A_1  L_1       
     e(  6 -  7) =     22.76320  eV     2   --> E    L_3       
     e(  8 -  8) =     29.59175  eV     1   --> A_1  L_1       

 **************************************************************************

     BANDS        :      0.35s CPU      0.39s WALL


   This run was terminated on:  23:54:25   5Oct2024            

=------------------------------------------------------------------------------=
   JOB DONE.
=------------------------------------------------------------------------------=
