
     Program PWSCF v.7.3.1 starts on  5Oct2024 at 23:54:23 

     This program is part of the open-source Quantum ESPRESSO suite
     for quantum simulation of materials; please cite
         "P. Giannozzi et al., J. Phys.:Condens. Matter 21 395502 (2009);
         "P. Giannozzi et al., J. Phys.:Condens. Matter 29 465901 (2017);
         "P. Giannozzi et al., J. Chem. Phys. 152 154105 (2020);
          URL http://www.quantum-espresso.org", 
     in publications or presentations arising from this work. More details at
     http://www.quantum-espresso.org/quote

     Parallel version (MPI & OpenMP), running on       2 processor cores
     Number of MPI processes:                 2
     Threads/MPI process:                     1

     MPI processes distributed on     1 nodes
     508846 MiB available memory on the printing compute node when the environment starts

     Waiting for input...
     Reading input from standard input
Warning: card &IONS ignored
Warning: card / ignored

     Current dimensions of program PWSCF are:
     Max number of different atomic species (ntypx) = 10
     Max number of k-points (npk) =  40000
     Max angular momentum in pseudopotentials (lmaxx) =  4

     Atomic positions and unit cell read from directory:
     ./diamond.save/

     Message from routine setup:
     no reason to have ecutrho>4*ecutwfc

     R & G space division:  proc/nbgrp/npool/nimage =       2
     Subspace diagonalization in iterative solution of the eigenvalue problem:
     a serial algorithm will be used


     Parallelization info
     --------------------
     sticks:   dense  smooth     PW     G-vecs:    dense   smooth      PW
     Min         156      60     21                 1847      469      90
     Max         157      61     22                 1848      472      91
     Sum         313     121     43                 3695      941     181

     Using Slab Decomposition



     bravais-lattice index     =            2
     lattice parameter (alat)  =       6.7370  a.u.
     unit-cell volume          =      76.4433 (a.u.)^3
     number of atoms/cell      =            2
     number of atomic types    =            1
     number of electrons       =         8.00
     number of Kohn-Sham states=            8
     kinetic-energy cutoff     =      20.0000  Ry
     charge density cutoff     =     200.0000  Ry
     Exchange-correlation= PBE
                           (   1   4   3   4   0   0   0)

     celldm(1)=   6.737000  celldm(2)=   0.000000  celldm(3)=   0.000000
     celldm(4)=   0.000000  celldm(5)=   0.000000  celldm(6)=   0.000000

     crystal axes: (cart. coord. in units of alat)
               a(1) = (  -0.500000   0.000000   0.500000 )  
               a(2) = (   0.000000   0.500000   0.500000 )  
               a(3) = (  -0.500000   0.500000   0.000000 )  

     reciprocal axes: (cart. coord. in units 2 pi/alat)
               b(1) = ( -1.000000 -1.000000  1.000000 )  
               b(2) = (  1.000000  1.000000  1.000000 )  
               b(3) = ( -1.000000  1.000000 -1.000000 )  


     PseudoPot. # 1 for C  read from file:
     ./C_ONCV_PBE-1.0.upf
     MD5 check sum: 40f8c33130f0afa4272e9dcc1c4fb0df
     Pseudo is Norm-conserving, Zval =  4.0
     Generated using ONCVPSP code by D. R. Hamann
     Using radial grid of  602 points,  4 beta functions with: 
                l(1) =   0
                l(2) =   0
                l(3) =   1
                l(4) =   1

     atomic species   valence    mass     pseudopotential
     C                 4.00    12.00000     C ( 1.00)

     48 Sym. Ops., with inversion, found (24 have fractional translation)


                                    s                        frac. trans.

      isym =  1     identity                                     

 cryst.   s( 1) = (     1          0          0      )
                  (     0          1          0      )
                  (     0          0          1      )

 cart.    s( 1) = (  1.0000000  0.0000000  0.0000000 )
                  (  0.0000000  1.0000000  0.0000000 )
                  (  0.0000000  0.0000000  1.0000000 )


      isym =  2     180 deg rotation - cart. axis [0,0,1]        

 cryst.   s( 2) = (     0          1         -1      )
                  (     1          0         -1      )
                  (     0          0         -1      )

 cart.    s( 2) = ( -1.0000000  0.0000000  0.0000000 )
                  (  0.0000000 -1.0000000  0.0000000 )
                  (  0.0000000  0.0000000  1.0000000 )


      isym =  3     180 deg rotation - cart. axis [0,1,0]        

 cryst.   s( 3) = (    -1          0          0      )
                  (    -1          0          1      )
                  (    -1          1          0      )

 cart.    s( 3) = ( -1.0000000  0.0000000  0.0000000 )
                  (  0.0000000  1.0000000  0.0000000 )
                  (  0.0000000  0.0000000 -1.0000000 )


      isym =  4     180 deg rotation - cart. axis [1,0,0]        

 cryst.   s( 4) = (     0         -1          1      )
                  (     0         -1          0      )
                  (     1         -1          0      )

 cart.    s( 4) = (  1.0000000  0.0000000  0.0000000 )
                  (  0.0000000 -1.0000000  0.0000000 )
                  (  0.0000000  0.0000000 -1.0000000 )


      isym =  5     180 deg rotation - cart. axis [1,1,0]        

 cryst.   s( 5) = (     0         -1          0      )    f =(  0.2500000 )
                  (    -1          0          0      )       (  0.2500000 )
                  (     0          0         -1      )       (  0.2500000 )

 cart.    s( 5) = (  0.0000000  1.0000000  0.0000000 )    f =( -0.2500000 )
                  (  1.0000000  0.0000000  0.0000000 )       (  0.2500000 )
                  (  0.0000000  0.0000000 -1.0000000 )       (  0.2500000 )


      isym =  6     180 deg rotation - cart. axis [1,-1,0]       

 cryst.   s( 6) = (    -1          0          1      )    f =(  0.2500000 )
                  (     0         -1          1      )       (  0.2500000 )
                  (     0          0          1      )       (  0.2500000 )

 cart.    s( 6) = (  0.0000000 -1.0000000  0.0000000 )    f =( -0.2500000 )
                  ( -1.0000000  0.0000000  0.0000000 )       (  0.2500000 )
                  (  0.0000000  0.0000000 -1.0000000 )       (  0.2500000 )


      isym =  7      90 deg rotation - cart. axis [0,0,-1]       

 cryst.   s( 7) = (     0          1          0      )    f =(  0.2500000 )
                  (     0          1         -1      )       (  0.2500000 )
                  (    -1          1          0      )       (  0.2500000 )

 cart.    s( 7) = (  0.0000000  1.0000000  0.0000000 )    f =( -0.2500000 )
                  ( -1.0000000  0.0000000  0.0000000 )       (  0.2500000 )
                  (  0.0000000  0.0000000  1.0000000 )       (  0.2500000 )


      isym =  8      90 deg rotation - cart. axis [0,0,1]        

 cryst.   s( 8) = (     1          0         -1      )    f =(  0.2500000 )
                  (     1          0          0      )       (  0.2500000 )
                  (     1         -1          0      )       (  0.2500000 )

 cart.    s( 8) = (  0.0000000 -1.0000000  0.0000000 )    f =( -0.2500000 )
                  (  1.0000000  0.0000000  0.0000000 )       (  0.2500000 )
                  (  0.0000000  0.0000000  1.0000000 )       (  0.2500000 )


      isym =  9     180 deg rotation - cart. axis [1,0,1]        

 cryst.   s( 9) = (    -1          0          0      )    f =(  0.2500000 )
                  (     0          0         -1      )       (  0.2500000 )
                  (     0         -1          0      )       (  0.2500000 )

 cart.    s( 9) = (  0.0000000  0.0000000  1.0000000 )    f =( -0.2500000 )
                  (  0.0000000 -1.0000000  0.0000000 )       (  0.2500000 )
                  (  1.0000000  0.0000000  0.0000000 )       (  0.2500000 )


      isym = 10     180 deg rotation - cart. axis [-1,0,1]       

 cryst.   s(10) = (     1          0          0      )    f =(  0.2500000 )
                  (     1         -1          0      )       (  0.2500000 )
                  (     1          0         -1      )       (  0.2500000 )

 cart.    s(10) = (  0.0000000  0.0000000 -1.0000000 )    f =( -0.2500000 )
                  (  0.0000000 -1.0000000  0.0000000 )       (  0.2500000 )
                  ( -1.0000000  0.0000000  0.0000000 )       (  0.2500000 )


      isym = 11      90 deg rotation - cart. axis [0,1,0]        

 cryst.   s(11) = (     0          1         -1      )    f =(  0.2500000 )
                  (    -1          1          0      )       (  0.2500000 )
                  (     0          1          0      )       (  0.2500000 )

 cart.    s(11) = (  0.0000000  0.0000000  1.0000000 )    f =( -0.2500000 )
                  (  0.0000000  1.0000000  0.0000000 )       (  0.2500000 )
                  ( -1.0000000  0.0000000  0.0000000 )       (  0.2500000 )


      isym = 12      90 deg rotation - cart. axis [0,-1,0]       

 cryst.   s(12) = (     0         -1          1      )    f =(  0.2500000 )
                  (     0          0          1      )       (  0.2500000 )
                  (    -1          0          1      )       (  0.2500000 )

 cart.    s(12) = (  0.0000000  0.0000000 -1.0000000 )    f =( -0.2500000 )
                  (  0.0000000  1.0000000  0.0000000 )       (  0.2500000 )
                  (  1.0000000  0.0000000  0.0000000 )       (  0.2500000 )


      isym = 13     180 deg rotation - cart. axis [0,1,1]        

 cryst.   s(13) = (    -1          1          0      )    f =(  0.2500000 )
                  (     0          1          0      )       (  0.2500000 )
                  (     0          1         -1      )       (  0.2500000 )

 cart.    s(13) = ( -1.0000000  0.0000000  0.0000000 )    f =( -0.2500000 )
                  (  0.0000000  0.0000000  1.0000000 )       (  0.2500000 )
                  (  0.0000000  1.0000000  0.0000000 )       (  0.2500000 )


      isym = 14     180 deg rotation - cart. axis [0,1,-1]       

 cryst.   s(14) = (     0          0         -1      )    f =(  0.2500000 )
                  (     0         -1          0      )       (  0.2500000 )
                  (    -1          0          0      )       (  0.2500000 )

 cart.    s(14) = ( -1.0000000  0.0000000  0.0000000 )    f =( -0.2500000 )
                  (  0.0000000  0.0000000 -1.0000000 )       (  0.2500000 )
                  (  0.0000000 -1.0000000  0.0000000 )       (  0.2500000 )


      isym = 15      90 deg rotation - cart. axis [-1,0,0]       

 cryst.   s(15) = (     0          0          1      )    f =(  0.2500000 )
                  (    -1          0          1      )       (  0.2500000 )
                  (     0         -1          1      )       (  0.2500000 )

 cart.    s(15) = (  1.0000000  0.0000000  0.0000000 )    f =( -0.2500000 )
                  (  0.0000000  0.0000000  1.0000000 )       (  0.2500000 )
                  (  0.0000000 -1.0000000  0.0000000 )       (  0.2500000 )


      isym = 16      90 deg rotation - cart. axis [1,0,0]        

 cryst.   s(16) = (     1         -1          0      )    f =(  0.2500000 )
                  (     1          0         -1      )       (  0.2500000 )
                  (     1          0          0      )       (  0.2500000 )

 cart.    s(16) = (  1.0000000  0.0000000  0.0000000 )    f =( -0.2500000 )
                  (  0.0000000  0.0000000 -1.0000000 )       (  0.2500000 )
                  (  0.0000000  1.0000000  0.0000000 )       (  0.2500000 )


      isym = 17     120 deg rotation - cart. axis [-1,-1,-1]     

 cryst.   s(17) = (    -1          0          1      )
                  (    -1          1          0      )
                  (    -1          0          0      )

 cart.    s(17) = (  0.0000000  1.0000000  0.0000000 )
                  (  0.0000000  0.0000000  1.0000000 )
                  (  1.0000000  0.0000000  0.0000000 )


      isym = 18     120 deg rotation - cart. axis [-1,1,1]       

 cryst.   s(18) = (     0          1          0      )
                  (     0          0          1      )
                  (     1          0          0      )

 cart.    s(18) = (  0.0000000 -1.0000000  0.0000000 )
                  (  0.0000000  0.0000000  1.0000000 )
                  ( -1.0000000  0.0000000  0.0000000 )


      isym = 19     120 deg rotation - cart. axis [1,1,-1]       

 cryst.   s(19) = (     1          0         -1      )
                  (     0          0         -1      )
                  (     0          1         -1      )

 cart.    s(19) = (  0.0000000  1.0000000  0.0000000 )
                  (  0.0000000  0.0000000 -1.0000000 )
                  ( -1.0000000  0.0000000  0.0000000 )


      isym = 20     120 deg rotation - cart. axis [1,-1,1]       

 cryst.   s(20) = (     0         -1          0      )
                  (     1         -1          0      )
                  (     0         -1          1      )

 cart.    s(20) = (  0.0000000 -1.0000000  0.0000000 )
                  (  0.0000000  0.0000000 -1.0000000 )
                  (  1.0000000  0.0000000  0.0000000 )


      isym = 21     120 deg rotation - cart. axis [1,1,1]        

 cryst.   s(21) = (     0          0         -1      )
                  (     0          1         -1      )
                  (     1          0         -1      )

 cart.    s(21) = (  0.0000000  0.0000000  1.0000000 )
                  (  1.0000000  0.0000000  0.0000000 )
                  (  0.0000000  1.0000000  0.0000000 )


      isym = 22     120 deg rotation - cart. axis [-1,1,-1]      

 cryst.   s(22) = (    -1          1          0      )
                  (    -1          0          0      )
                  (    -1          0          1      )

 cart.    s(22) = (  0.0000000  0.0000000  1.0000000 )
                  ( -1.0000000  0.0000000  0.0000000 )
                  (  0.0000000 -1.0000000  0.0000000 )


      isym = 23     120 deg rotation - cart. axis [1,-1,-1]      

 cryst.   s(23) = (     0          0          1      )
                  (     1          0          0      )
                  (     0          1          0      )

 cart.    s(23) = (  0.0000000  0.0000000 -1.0000000 )
                  ( -1.0000000  0.0000000  0.0000000 )
                  (  0.0000000  1.0000000  0.0000000 )


      isym = 24     120 deg rotation - cart. axis [-1,-1,1]      

 cryst.   s(24) = (     1         -1          0      )
                  (     0         -1          1      )
                  (     0         -1          0      )

 cart.    s(24) = (  0.0000000  0.0000000 -1.0000000 )
                  (  1.0000000  0.0000000  0.0000000 )
                  (  0.0000000 -1.0000000  0.0000000 )


      isym = 25     inversion                                    

 cryst.   s(25) = (    -1          0          0      )    f =(  0.2500000 )
                  (     0         -1          0      )       (  0.2500000 )
                  (     0          0         -1      )       (  0.2500000 )

 cart.    s(25) = ( -1.0000000  0.0000000  0.0000000 )    f =( -0.2500000 )
                  (  0.0000000 -1.0000000  0.0000000 )       (  0.2500000 )
                  (  0.0000000  0.0000000 -1.0000000 )       (  0.2500000 )


      isym = 26     inv. 180 deg rotation - cart. axis [0,0,1]   

 cryst.   s(26) = (     0         -1          1      )    f =(  0.2500000 )
                  (    -1          0          1      )       (  0.2500000 )
                  (     0          0          1      )       (  0.2500000 )

 cart.    s(26) = (  1.0000000  0.0000000  0.0000000 )    f =( -0.2500000 )
                  (  0.0000000  1.0000000  0.0000000 )       (  0.2500000 )
                  (  0.0000000  0.0000000 -1.0000000 )       (  0.2500000 )


      isym = 27     inv. 180 deg rotation - cart. axis [0,1,0]   

 cryst.   s(27) = (     1          0          0      )    f =(  0.2500000 )
                  (     1          0         -1      )       (  0.2500000 )
                  (     1         -1          0      )       (  0.2500000 )

 cart.    s(27) = (  1.0000000  0.0000000  0.0000000 )    f =( -0.2500000 )
                  (  0.0000000 -1.0000000  0.0000000 )       (  0.2500000 )
                  (  0.0000000  0.0000000  1.0000000 )       (  0.2500000 )


      isym = 28     inv. 180 deg rotation - cart. axis [1,0,0]   

 cryst.   s(28) = (     0          1         -1      )    f =(  0.2500000 )
                  (     0          1          0      )       (  0.2500000 )
                  (    -1          1          0      )       (  0.2500000 )

 cart.    s(28) = ( -1.0000000  0.0000000  0.0000000 )    f =( -0.2500000 )
                  (  0.0000000  1.0000000  0.0000000 )       (  0.2500000 )
                  (  0.0000000  0.0000000  1.0000000 )       (  0.2500000 )


      isym = 29     inv. 180 deg rotation - cart. axis [1,1,0]   

 cryst.   s(29) = (     0          1          0      )
                  (     1          0          0      )
                  (     0          0          1      )

 cart.    s(29) = (  0.0000000 -1.0000000  0.0000000 )
                  ( -1.0000000  0.0000000  0.0000000 )
                  (  0.0000000  0.0000000  1.0000000 )


      isym = 30     inv. 180 deg rotation - cart. axis [1,-1,0]  

 cryst.   s(30) = (     1          0         -1      )
                  (     0          1         -1      )
                  (     0          0         -1      )

 cart.    s(30) = (  0.0000000  1.0000000  0.0000000 )
                  (  1.0000000  0.0000000  0.0000000 )
                  (  0.0000000  0.0000000  1.0000000 )


      isym = 31     inv.  90 deg rotation - cart. axis [0,0,-1]  

 cryst.   s(31) = (     0         -1          0      )
                  (     0         -1          1      )
                  (     1         -1          0      )

 cart.    s(31) = (  0.0000000 -1.0000000  0.0000000 )
                  (  1.0000000  0.0000000  0.0000000 )
                  (  0.0000000  0.0000000 -1.0000000 )


      isym = 32     inv.  90 deg rotation - cart. axis [0,0,1]   

 cryst.   s(32) = (    -1          0          1      )
                  (    -1          0          0      )
                  (    -1          1          0      )

 cart.    s(32) = (  0.0000000  1.0000000  0.0000000 )
                  ( -1.0000000  0.0000000  0.0000000 )
                  (  0.0000000  0.0000000 -1.0000000 )


      isym = 33     inv. 180 deg rotation - cart. axis [1,0,1]   

 cryst.   s(33) = (     1          0          0      )
                  (     0          0          1      )
                  (     0          1          0      )

 cart.    s(33) = (  0.0000000  0.0000000 -1.0000000 )
                  (  0.0000000  1.0000000  0.0000000 )
                  ( -1.0000000  0.0000000  0.0000000 )


      isym = 34     inv. 180 deg rotation - cart. axis [-1,0,1]  

 cryst.   s(34) = (    -1          0          0      )
                  (    -1          1          0      )
                  (    -1          0          1      )

 cart.    s(34) = (  0.0000000  0.0000000  1.0000000 )
                  (  0.0000000  1.0000000  0.0000000 )
                  (  1.0000000  0.0000000  0.0000000 )


      isym = 35     inv.  90 deg rotation - cart. axis [0,1,0]   

 cryst.   s(35) = (     0         -1          1      )
                  (     1         -1          0      )
                  (     0         -1          0      )

 cart.    s(35) = (  0.0000000  0.0000000 -1.0000000 )
                  (  0.0000000 -1.0000000  0.0000000 )
                  (  1.0000000  0.0000000  0.0000000 )


      isym = 36     inv.  90 deg rotation - cart. axis [0,-1,0]  

 cryst.   s(36) = (     0          1         -1      )
                  (     0          0         -1      )
                  (     1          0         -1      )

 cart.    s(36) = (  0.0000000  0.0000000  1.0000000 )
                  (  0.0000000 -1.0000000  0.0000000 )
                  ( -1.0000000  0.0000000  0.0000000 )


      isym = 37     inv. 180 deg rotation - cart. axis [0,1,1]   

 cryst.   s(37) = (     1         -1          0      )
                  (     0         -1          0      )
                  (     0         -1          1      )

 cart.    s(37) = (  1.0000000  0.0000000  0.0000000 )
                  (  0.0000000  0.0000000 -1.0000000 )
                  (  0.0000000 -1.0000000  0.0000000 )


      isym = 38     inv. 180 deg rotation - cart. axis [0,1,-1]  

 cryst.   s(38) = (     0          0          1      )
                  (     0          1          0      )
                  (     1          0          0      )

 cart.    s(38) = (  1.0000000  0.0000000  0.0000000 )
                  (  0.0000000  0.0000000  1.0000000 )
                  (  0.0000000  1.0000000  0.0000000 )


      isym = 39     inv.  90 deg rotation - cart. axis [-1,0,0]  

 cryst.   s(39) = (     0          0         -1      )
                  (     1          0         -1      )
                  (     0          1         -1      )

 cart.    s(39) = ( -1.0000000  0.0000000  0.0000000 )
                  (  0.0000000  0.0000000 -1.0000000 )
                  (  0.0000000  1.0000000  0.0000000 )


      isym = 40     inv.  90 deg rotation - cart. axis [1,0,0]   

 cryst.   s(40) = (    -1          1          0      )
                  (    -1          0          1      )
                  (    -1          0          0      )

 cart.    s(40) = ( -1.0000000  0.0000000  0.0000000 )
                  (  0.0000000  0.0000000  1.0000000 )
                  (  0.0000000 -1.0000000  0.0000000 )


      isym = 41     inv. 120 deg rotation - cart. axis [-1,-1,-1]

 cryst.   s(41) = (     1          0         -1      )    f =(  0.2500000 )
                  (     1         -1          0      )       (  0.2500000 )
                  (     1          0          0      )       (  0.2500000 )

 cart.    s(41) = (  0.0000000 -1.0000000  0.0000000 )    f =( -0.2500000 )
                  (  0.0000000  0.0000000 -1.0000000 )       (  0.2500000 )
                  ( -1.0000000  0.0000000  0.0000000 )       (  0.2500000 )


      isym = 42     inv. 120 deg rotation - cart. axis [-1,1,1]  

 cryst.   s(42) = (     0         -1          0      )    f =(  0.2500000 )
                  (     0          0         -1      )       (  0.2500000 )
                  (    -1          0          0      )       (  0.2500000 )

 cart.    s(42) = (  0.0000000  1.0000000  0.0000000 )    f =( -0.2500000 )
                  (  0.0000000  0.0000000 -1.0000000 )       (  0.2500000 )
                  (  1.0000000  0.0000000  0.0000000 )       (  0.2500000 )


      isym = 43     inv. 120 deg rotation - cart. axis [1,1,-1]  

 cryst.   s(43) = (    -1          0          1      )    f =(  0.2500000 )
                  (     0          0          1      )       (  0.2500000 )
                  (     0         -1          1      )       (  0.2500000 )

 cart.    s(43) = (  0.0000000 -1.0000000  0.0000000 )    f =( -0.2500000 )
                  (  0.0000000  0.0000000  1.0000000 )       (  0.2500000 )
                  (  1.0000000  0.0000000  0.0000000 )       (  0.2500000 )


      isym = 44     inv. 120 deg rotation - cart. axis [1,-1,1]  

 cryst.   s(44) = (     0          1          0      )    f =(  0.2500000 )
                  (    -1          1          0      )       (  0.2500000 )
                  (     0          1         -1      )       (  0.2500000 )

 cart.    s(44) = (  0.0000000  1.0000000  0.0000000 )    f =( -0.2500000 )
                  (  0.0000000  0.0000000  1.0000000 )       (  0.2500000 )
                  ( -1.0000000  0.0000000  0.0000000 )       (  0.2500000 )


      isym = 45     inv. 120 deg rotation - cart. axis [1,1,1]   

 cryst.   s(45) = (     0          0          1      )    f =(  0.2500000 )
                  (     0         -1          1      )       (  0.2500000 )
                  (    -1          0          1      )       (  0.2500000 )

 cart.    s(45) = (  0.0000000  0.0000000 -1.0000000 )    f =( -0.2500000 )
                  ( -1.0000000  0.0000000  0.0000000 )       (  0.2500000 )
                  (  0.0000000 -1.0000000  0.0000000 )       (  0.2500000 )


      isym = 46     inv. 120 deg rotation - cart. axis [-1,1,-1] 

 cryst.   s(46) = (     1         -1          0      )    f =(  0.2500000 )
                  (     1          0          0      )       (  0.2500000 )
                  (     1          0         -1      )       (  0.2500000 )

 cart.    s(46) = (  0.0000000  0.0000000 -1.0000000 )    f =( -0.2500000 )
                  (  1.0000000  0.0000000  0.0000000 )       (  0.2500000 )
                  (  0.0000000  1.0000000  0.0000000 )       (  0.2500000 )


      isym = 47     inv. 120 deg rotation - cart. axis [1,-1,-1] 

 cryst.   s(47) = (     0          0         -1      )    f =(  0.2500000 )
                  (    -1          0          0      )       (  0.2500000 )
                  (     0         -1          0      )       (  0.2500000 )

 cart.    s(47) = (  0.0000000  0.0000000  1.0000000 )    f =( -0.2500000 )
                  (  1.0000000  0.0000000  0.0000000 )       (  0.2500000 )
                  (  0.0000000 -1.0000000  0.0000000 )       (  0.2500000 )


      isym = 48     inv. 120 deg rotation - cart. axis [-1,-1,1] 

 cryst.   s(48) = (    -1          1          0      )    f =(  0.2500000 )
                  (     0          1         -1      )       (  0.2500000 )
                  (     0          1          0      )       (  0.2500000 )

 cart.    s(48) = (  0.0000000  0.0000000  1.0000000 )    f =( -0.2500000 )
                  ( -1.0000000  0.0000000  0.0000000 )       (  0.2500000 )
                  (  0.0000000  1.0000000  0.0000000 )       (  0.2500000 )


     point group O_h (m-3m) 
     there are 10 classes
     the character table:

       E     8C3   3C2   6C4   6C2'  i     8S6   3s_h  6S4   6s_d 
A_1g   1.00  1.00  1.00  1.00  1.00  1.00  1.00  1.00  1.00  1.00
A_2g   1.00  1.00  1.00 -1.00 -1.00  1.00  1.00  1.00 -1.00 -1.00
E_g    2.00 -1.00  2.00  0.00  0.00  2.00 -1.00  2.00  0.00  0.00
T_1g   3.00  0.00 -1.00  1.00 -1.00  3.00  0.00 -1.00  1.00 -1.00
T_2g   3.00  0.00 -1.00 -1.00  1.00  3.00  0.00 -1.00 -1.00  1.00
A_1u   1.00  1.00  1.00  1.00  1.00 -1.00 -1.00 -1.00 -1.00 -1.00
A_2u   1.00  1.00  1.00 -1.00 -1.00 -1.00 -1.00 -1.00  1.00  1.00
E_u    2.00 -1.00  2.00  0.00  0.00 -2.00  1.00 -2.00  0.00  0.00
T_1u   3.00  0.00 -1.00  1.00 -1.00 -3.00  0.00  1.00 -1.00  1.00
T_2u   3.00  0.00 -1.00 -1.00  1.00 -3.00  0.00  1.00  1.00 -1.00

     the symmetry operations in each class and the name of the first element:

     E        1
          identity                                               
     8C3     17   19   20   18   24   21   22   23
          120 deg rotation - cart. axis [-1,-1,-1]               
     3C2      2    4    3
          180 deg rotation - cart. axis [0,0,1]                  
     6C4      7    8   15   16   12   11
           90 deg rotation - cart. axis [0,0,-1]                 
     6C2'     5    6   14   13   10    9
          180 deg rotation - cart. axis [1,1,0]                  
     i       25
          inversion                                              
     8S6     41   43   44   42   48   45   46   47
          inv. 120 deg rotation - cart. axis [-1,-1,-1]          
     3s_h    26   28   27
          inv. 180 deg rotation - cart. axis [0,0,1]             
     6S4     31   32   39   40   36   35
          inv.  90 deg rotation - cart. axis [0,0,-1]            
     6s_d    29   30   38   37   34   33
          inv. 180 deg rotation - cart. axis [1,1,0]             

   Cartesian axes

     site n.     atom                  positions (alat units)
         1        C      tau(   1) = (   0.0000000   0.0000000   0.0000000  )
         2        C      tau(   2) = (   0.2500000   0.2500000   0.2500000  )

   Crystallographic axes

     site n.     atom                  positions (cryst. coord.)
         1        C      tau(   1) = (  0.0000000  0.0000000  0.0000000  )
         2        C      tau(   2) = ( -0.2500000  0.7500000 -0.2500000  )

     number of k points=    51
                       cart. coord. in units 2pi/alat
        k(    1) = (   0.0000000   0.0000000   0.0000000), wk =   0.0392157
        k(    2) = (   0.0500000   0.0000000   0.0500000), wk =   0.0392157
        k(    3) = (   0.1000000   0.0000000   0.1000000), wk =   0.0392157
        k(    4) = (   0.1500000   0.0000000   0.1500000), wk =   0.0392157
        k(    5) = (   0.2000000   0.0000000   0.2000000), wk =   0.0392157
        k(    6) = (   0.2500000   0.0000000   0.2500000), wk =   0.0392157
        k(    7) = (   0.3000000   0.0000000   0.3000000), wk =   0.0392157
        k(    8) = (   0.3500000   0.0000000   0.3500000), wk =   0.0392157
        k(    9) = (   0.4000000   0.0000000   0.4000000), wk =   0.0392157
        k(   10) = (   0.4500000   0.0000000   0.4500000), wk =   0.0392157
        k(   11) = (   0.5000000   0.0000000   0.5000000), wk =   0.0392157
        k(   12) = (   0.4875000   0.0375000   0.5250000), wk =   0.0392157
        k(   13) = (   0.4750000   0.0750000   0.5500000), wk =   0.0392157
        k(   14) = (   0.4625000   0.1125000   0.5750000), wk =   0.0392157
        k(   15) = (   0.4500000   0.1500000   0.6000000), wk =   0.0392157
        k(   16) = (   0.4375000   0.1875000   0.6250000), wk =   0.0392157
        k(   17) = (   0.4250000   0.2250000   0.6500000), wk =   0.0392157
        k(   18) = (   0.4125000   0.2625000   0.6750000), wk =   0.0392157
        k(   19) = (   0.4000000   0.3000000   0.7000000), wk =   0.0392157
        k(   20) = (   0.3875000   0.3375000   0.7250000), wk =   0.0392157
        k(   21) = (   0.3750000   0.3750000   0.7500000), wk =   0.0392157
        k(   22) = (   0.3375000   0.3375000   0.6750000), wk =   0.0392157
        k(   23) = (   0.3000000   0.3000000   0.6000000), wk =   0.0392157
        k(   24) = (   0.2625000   0.2625000   0.5250000), wk =   0.0392157
        k(   25) = (   0.2250000   0.2250000   0.4500000), wk =   0.0392157
        k(   26) = (   0.1875000   0.1875000   0.3750000), wk =   0.0392157
        k(   27) = (   0.1500000   0.1500000   0.3000000), wk =   0.0392157
        k(   28) = (   0.1125000   0.1125000   0.2250000), wk =   0.0392157
        k(   29) = (   0.0750000   0.0750000   0.1500000), wk =   0.0392157
        k(   30) = (   0.0375000   0.0375000   0.0750000), wk =   0.0392157
        k(   31) = (   0.0000000   0.0000000   0.0000000), wk =   0.0392157
        k(   32) = (   0.0500000   0.0500000   0.0500000), wk =   0.0392157
        k(   33) = (   0.1000000   0.1000000   0.1000000), wk =   0.0392157
        k(   34) = (   0.1500000   0.1500000   0.1500000), wk =   0.0392157
        k(   35) = (   0.2000000   0.2000000   0.2000000), wk =   0.0392157
        k(   36) = (   0.2500000   0.2500000   0.2500000), wk =   0.0392157
        k(   37) = (   0.3000000   0.3000000   0.3000000), wk =   0.0392157
        k(   38) = (   0.3500000   0.3500000   0.3500000), wk =   0.0392157
        k(   39) = (   0.4000000   0.4000000   0.4000000), wk =   0.0392157
        k(   40) = (   0.4500000   0.4500000   0.4500000), wk =   0.0392157
        k(   41) = (   0.5000000   0.5000000   0.5000000), wk =   0.0392157
        k(   42) = (   0.4750000   0.4750000   0.4750000), wk =   0.0392157
        k(   43) = (   0.4500000   0.4500000   0.4500000), wk =   0.0392157
        k(   44) = (   0.4250000   0.4250000   0.4250000), wk =   0.0392157
        k(   45) = (   0.4000000   0.4000000   0.4000000), wk =   0.0392157
        k(   46) = (   0.3750000   0.3750000   0.3750000), wk =   0.0392157
        k(   47) = (   0.3500000   0.3500000   0.3500000), wk =   0.0392157
        k(   48) = (   0.3250000   0.3250000   0.3250000), wk =   0.0392157
        k(   49) = (   0.3000000   0.3000000   0.3000000), wk =   0.0392157
        k(   50) = (   0.2750000   0.2750000   0.2750000), wk =   0.0392157
        k(   51) = (   0.2500000   0.2500000   0.2500000), wk =   0.0392157

                       cryst. coord.
        k(    1) = (   0.0000000   0.0000000   0.0000000), wk =   0.0392157
        k(    2) = (   0.0000000   0.0250000  -0.0250000), wk =   0.0392157
        k(    3) = (   0.0000000   0.0500000  -0.0500000), wk =   0.0392157
        k(    4) = (   0.0000000   0.0750000  -0.0750000), wk =   0.0392157
        k(    5) = (   0.0000000   0.1000000  -0.1000000), wk =   0.0392157
        k(    6) = (   0.0000000   0.1250000  -0.1250000), wk =   0.0392157
        k(    7) = (   0.0000000   0.1500000  -0.1500000), wk =   0.0392157
        k(    8) = (   0.0000000   0.1750000  -0.1750000), wk =   0.0392157
        k(    9) = (   0.0000000   0.2000000  -0.2000000), wk =   0.0392157
        k(   10) = (   0.0000000   0.2250000  -0.2250000), wk =   0.0392157
        k(   11) = (   0.0000000   0.2500000  -0.2500000), wk =   0.0392157
        k(   12) = (   0.0187500   0.2812500  -0.2250000), wk =   0.0392157
        k(   13) = (   0.0375000   0.3125000  -0.2000000), wk =   0.0392157
        k(   14) = (   0.0562500   0.3437500  -0.1750000), wk =   0.0392157
        k(   15) = (   0.0750000   0.3750000  -0.1500000), wk =   0.0392157
        k(   16) = (   0.0937500   0.4062500  -0.1250000), wk =   0.0392157
        k(   17) = (   0.1125000   0.4375000  -0.1000000), wk =   0.0392157
        k(   18) = (   0.1312500   0.4687500  -0.0750000), wk =   0.0392157
        k(   19) = (   0.1500000   0.5000000  -0.0500000), wk =   0.0392157
        k(   20) = (   0.1687500   0.5312500  -0.0250000), wk =   0.0392157
        k(   21) = (   0.1875000   0.5625000   0.0000000), wk =   0.0392157
        k(   22) = (   0.1687500   0.5062500   0.0000000), wk =   0.0392157
        k(   23) = (   0.1500000   0.4500000   0.0000000), wk =   0.0392157
        k(   24) = (   0.1312500   0.3937500   0.0000000), wk =   0.0392157
        k(   25) = (   0.1125000   0.3375000   0.0000000), wk =   0.0392157
        k(   26) = (   0.0937500   0.2812500   0.0000000), wk =   0.0392157
        k(   27) = (   0.0750000   0.2250000   0.0000000), wk =   0.0392157
        k(   28) = (   0.0562500   0.1687500   0.0000000), wk =   0.0392157
        k(   29) = (   0.0375000   0.1125000   0.0000000), wk =   0.0392157
        k(   30) = (   0.0187500   0.0562500   0.0000000), wk =   0.0392157
        k(   31) = (   0.0000000   0.0000000   0.0000000), wk =   0.0392157
        k(   32) = (   0.0000000   0.0500000   0.0000000), wk =   0.0392157
        k(   33) = (   0.0000000   0.1000000   0.0000000), wk =   0.0392157
        k(   34) = (   0.0000000   0.1500000   0.0000000), wk =   0.0392157
        k(   35) = (   0.0000000   0.2000000   0.0000000), wk =   0.0392157
        k(   36) = (   0.0000000   0.2500000   0.0000000), wk =   0.0392157
        k(   37) = (   0.0000000   0.3000000   0.0000000), wk =   0.0392157
        k(   38) = (   0.0000000   0.3500000   0.0000000), wk =   0.0392157
        k(   39) = (   0.0000000   0.4000000   0.0000000), wk =   0.0392157
        k(   40) = (   0.0000000   0.4500000   0.0000000), wk =   0.0392157
        k(   41) = (   0.0000000   0.5000000   0.0000000), wk =   0.0392157
        k(   42) = (   0.0000000   0.4750000   0.0000000), wk =   0.0392157
        k(   43) = (   0.0000000   0.4500000   0.0000000), wk =   0.0392157
        k(   44) = (   0.0000000   0.4250000   0.0000000), wk =   0.0392157
        k(   45) = (   0.0000000   0.4000000   0.0000000), wk =   0.0392157
        k(   46) = (   0.0000000   0.3750000   0.0000000), wk =   0.0392157
        k(   47) = (   0.0000000   0.3500000   0.0000000), wk =   0.0392157
        k(   48) = (   0.0000000   0.3250000   0.0000000), wk =   0.0392157
        k(   49) = (   0.0000000   0.3000000   0.0000000), wk =   0.0392157
        k(   50) = (   0.0000000   0.2750000   0.0000000), wk =   0.0392157
        k(   51) = (   0.0000000   0.2500000   0.0000000), wk =   0.0392157

     Dense  grid:     3695 G-vectors     FFT dimensions: (  24,  24,  24)

     Smooth grid:      941 G-vectors     FFT dimensions: (  16,  16,  16)

     Dynamical RAM for                 wfc:       0.01 MB

     Dynamical RAM for     wfc (w. buffer):       0.01 MB

     Dynamical RAM for           str. fact:       0.03 MB

     Dynamical RAM for           local pot:       0.00 MB

     Dynamical RAM for          nlocal pot:       0.01 MB

     Dynamical RAM for                qrad:       0.32 MB

     Dynamical RAM for          rho,v,vnew:       0.24 MB

     Dynamical RAM for           G-vectors:       0.11 MB

     Dynamical RAM for          h,s,v(r/c):       0.01 MB

     Dynamical RAM for          <psi|beta>:       0.00 MB

     Dynamical RAM for                 psi:       0.01 MB

     Dynamical RAM for                hpsi:       0.01 MB

     Dynamical RAM for      wfcinit/wfcrot:       0.02 MB

     Estimated static dynamical RAM per process >       1.05 MB

     Estimated max dynamical RAM per process >       1.09 MB

     Estimated total dynamical RAM >       2.17 MB

     The potential is recalculated from file :
     ./diamond.save/charge-density

     Starting wfcs are random

     Band Structure Calculation
     Davidson diagonalization with overlap

     Computing kpt #:     1  of    51
     total cpu time spent up to now is        0.3 secs

     Computing kpt #:     2  of    51
     total cpu time spent up to now is        0.3 secs

     Computing kpt #:     3  of    51
     total cpu time spent up to now is        0.3 secs

     Computing kpt #:     4  of    51
     total cpu time spent up to now is        0.3 secs

     Computing kpt #:     5  of    51
     total cpu time spent up to now is        0.3 secs

     Computing kpt #:     6  of    51
     total cpu time spent up to now is        0.3 secs

     Computing kpt #:     7  of    51
     total cpu time spent up to now is        0.4 secs

     Computing kpt #:     8  of    51
     total cpu time spent up to now is        0.4 secs

     Computing kpt #:     9  of    51
     total cpu time spent up to now is        0.4 secs

     Computing kpt #:    10  of    51
     total cpu time spent up to now is        0.4 secs

     Computing kpt #:    11  of    51
     total cpu time spent up to now is        0.4 secs

     Computing kpt #:    12  of    51
     total cpu time spent up to now is        0.4 secs

     Computing kpt #:    13  of    51
     total cpu time spent up to now is        0.4 secs

     Computing kpt #:    14  of    51
     total cpu time spent up to now is        0.4 secs

     Computing kpt #:    15  of    51
     total cpu time spent up to now is        0.4 secs

     Computing kpt #:    16  of    51
     total cpu time spent up to now is        0.4 secs

     Computing kpt #:    17  of    51
     total cpu time spent up to now is        0.4 secs

     Computing kpt #:    18  of    51
     total cpu time spent up to now is        0.4 secs

     Computing kpt #:    19  of    51
     total cpu time spent up to now is        0.5 secs

     Computing kpt #:    20  of    51
     total cpu time spent up to now is        0.5 secs

     Computing kpt #:    21  of    51
     total cpu time spent up to now is        0.5 secs

     Computing kpt #:    22  of    51
     total cpu time spent up to now is        0.5 secs

     Computing kpt #:    23  of    51
     total cpu time spent up to now is        0.5 secs

     Computing kpt #:    24  of    51
     total cpu time spent up to now is        0.5 secs

     Computing kpt #:    25  of    51
     total cpu time spent up to now is        0.5 secs

     Computing kpt #:    26  of    51
     total cpu time spent up to now is        0.5 secs

     Computing kpt #:    27  of    51
     total cpu time spent up to now is        0.5 secs

     Computing kpt #:    28  of    51
     total cpu time spent up to now is        0.5 secs

     Computing kpt #:    29  of    51
     total cpu time spent up to now is        0.5 secs

     Computing kpt #:    30  of    51
     total cpu time spent up to now is        0.5 secs

     Computing kpt #:    31  of    51
     total cpu time spent up to now is        0.5 secs

     Computing kpt #:    32  of    51
     total cpu time spent up to now is        0.6 secs

     Computing kpt #:    33  of    51
     total cpu time spent up to now is        0.6 secs

     Computing kpt #:    34  of    51
     total cpu time spent up to now is        0.6 secs

     Computing kpt #:    35  of    51
     total cpu time spent up to now is        0.6 secs

     Computing kpt #:    36  of    51
     total cpu time spent up to now is        0.6 secs

     Computing kpt #:    37  of    51
     total cpu time spent up to now is        0.6 secs

     Computing kpt #:    38  of    51
     total cpu time spent up to now is        0.6 secs

     Computing kpt #:    39  of    51
     total cpu time spent up to now is        0.6 secs

     Computing kpt #:    40  of    51
     total cpu time spent up to now is        0.6 secs

     Computing kpt #:    41  of    51
     total cpu time spent up to now is        0.6 secs

     Computing kpt #:    42  of    51
     total cpu time spent up to now is        0.6 secs

     Computing kpt #:    43  of    51
     total cpu time spent up to now is        0.6 secs

     Computing kpt #:    44  of    51
     total cpu time spent up to now is        0.6 secs

     Computing kpt #:    45  of    51
     total cpu time spent up to now is        0.7 secs

     Computing kpt #:    46  of    51
     total cpu time spent up to now is        0.7 secs

     Computing kpt #:    47  of    51
     total cpu time spent up to now is        0.7 secs

     Computing kpt #:    48  of    51
     total cpu time spent up to now is        0.7 secs

     Computing kpt #:    49  of    51
     total cpu time spent up to now is        0.7 secs

     Computing kpt #:    50  of    51
     total cpu time spent up to now is        0.7 secs

     Computing kpt #:    51  of    51
     total cpu time spent up to now is        0.7 secs

     ethr =  1.25E-10,  avg # of iterations = 21.7

     total cpu time spent up to now is        0.7 secs

     End of band structure calculation

          k = 0.0000 0.0000 0.0000 (   113 PWs)   bands (ev):

    -7.9229  14.3388  14.3388  14.3388  20.7206  20.7206  20.7206  27.0304

     occupation numbers 
     1.0000   1.0000   1.0000   1.0000   0.0000   0.0000   0.0000   0.0000

          k = 0.0500 0.0000 0.0500 (   113 PWs)   bands (ev):

    -7.8731  14.0482  14.1521  14.3114  20.7719  20.8325  20.9449  27.1141

     occupation numbers 
     1.0000   1.0000   1.0000   1.0000   0.0000   0.0000   0.0000   0.0000

          k = 0.1000 0.0000 0.1000 (   117 PWs)   bands (ev):

    -7.7810  13.2816  13.5930  14.2272  20.8953  20.9560  21.4265  27.3512

     occupation numbers 
     1.0000   1.0000   1.0000   1.0000   0.0000   0.0000   0.0000   0.0000

          k = 0.1500 0.0000 0.1500 (   119 PWs)   bands (ev):

    -7.5727  12.2418  12.8119  14.0828  21.1482  21.4272  21.9453  27.6917

     occupation numbers 
     1.0000   1.0000   1.0000   1.0000   0.0000   0.0000   0.0000   0.0000

          k = 0.2000 0.0000 0.2000 (   119 PWs)   bands (ev):

    -7.2414  11.1261  11.9052  13.8723  21.5016  22.0225  22.5069  28.0355

     occupation numbers 
     1.0000   1.0000   1.0000   1.0000   0.0000   0.0000   0.0000   0.0000

          k = 0.2500 0.0000 0.2500 (   117 PWs)   bands (ev):

    -6.8142  10.1645  10.9327  13.6146  21.9541  22.6835  23.0416  28.2787

     occupation numbers 
     1.0000   1.0000   1.0000   1.0000   0.0000   0.0000   0.0000   0.0000

          k = 0.3000 0.0000 0.3000 (   121 PWs)   bands (ev):

    -6.3440   9.0024   9.9398  13.2585  22.1698  23.2124  23.4069  28.3539

     occupation numbers 
     1.0000   1.0000   1.0000   1.0000   0.0000   0.0000   0.0000   0.0000

          k = 0.3500 0.0000 0.3500 (   115 PWs)   bands (ev):

    -5.7313   8.1479   9.0126  12.9986  22.8017  23.4294  24.3871  28.3812

     occupation numbers 
     1.0000   1.0000   1.0000   1.0000   0.0000   0.0000   0.0000   0.0000

          k = 0.4000 0.0000 0.4000 (   121 PWs)   bands (ev):

    -5.1161   7.0586   8.0263  12.4071  23.1820  23.4515  25.1997  28.1209

     occupation numbers 
     1.0000   1.0000   1.0000   1.0000   0.0000   0.0000   0.0000   0.0000

          k = 0.4500 0.0000 0.4500 (   117 PWs)   bands (ev):

    -4.3420   6.1016   7.1421  11.8842  22.9671  24.2620  26.4330  28.3224

     occupation numbers 
     1.0000   1.0000   1.0000   1.0000   0.0000   0.0000   0.0000   0.0000

          k = 0.5000 0.0000 0.5000 (   117 PWs)   bands (ev):

    -3.4950   5.1885   6.3328  11.3293  22.3932  25.1291  27.4033  28.6634

     occupation numbers 
     1.0000   1.0000   1.0000   1.0000   0.0000   0.0000   0.0000   0.0000

          k = 0.4875 0.0375 0.5250 (   117 PWs)   bands (ev):

    -3.3660   4.8453   6.4878  11.2293  22.3732  25.1158  27.3887  28.8558

     occupation numbers 
     1.0000   1.0000   1.0000   1.0000   0.0000   0.0000   0.0000   0.0000

          k = 0.4750 0.0750 0.5500 (   114 PWs)   bands (ev):

    -3.2015   4.3908   6.9053  11.1210  22.5085  24.9470  27.3235  29.2551

     occupation numbers 
     1.0000   1.0000   1.0000   1.0000   0.0000   0.0000   0.0000   0.0000

          k = 0.4625 0.1125 0.5750 (   116 PWs)   bands (ev):

    -3.0175   3.7865   7.3627  10.8723  22.6268  24.4508  27.1752  29.4723

     occupation numbers 
     1.0000   1.0000   1.0000   1.0000   0.0000   0.0000   0.0000   0.0000

          k = 0.4500 0.1500 0.6000 (   116 PWs)   bands (ev):

    -2.7986   3.2531   7.8069  10.6462  22.8386  23.9217  27.1502  29.6018

     occupation numbers 
     1.0000   1.0000   1.0000   1.0000   0.0000   0.0000   0.0000   0.0000

          k = 0.4375 0.1875 0.6250 (   116 PWs)   bands (ev):

    -2.5429   2.7092   8.2339  10.4022  22.8715  23.6551  27.1422  29.6651

     occupation numbers 
     1.0000   1.0000   1.0000   1.0000   0.0000   0.0000   0.0000   0.0000

          k = 0.4250 0.2250 0.6500 (   116 PWs)   bands (ev):

    -2.2677   2.2155   8.5722  10.2001  22.4637  23.9410  27.1013  29.7039

     occupation numbers 
     1.0000   1.0000   1.0000   1.0000   0.0000   0.0000   0.0000   0.0000

          k = 0.4125 0.2625 0.6750 (   117 PWs)   bands (ev):

    -1.9847   1.7691   8.7101  10.0678  22.0508  24.3292  27.0239  29.7104

     occupation numbers 
     1.0000   1.0000   1.0000   1.0000   0.0000   0.0000   0.0000   0.0000

          k = 0.4000 0.3000 0.7000 (   118 PWs)   bands (ev):

    -1.7256   1.4258   8.6408  10.1209  21.6580  24.8371  26.7833  29.8218

     occupation numbers 
     1.0000   1.0000   1.0000   1.0000   0.0000   0.0000   0.0000   0.0000

          k = 0.3875 0.3375 0.7250 (   115 PWs)   bands (ev):

    -1.4814   1.2308   8.4414  10.3442  21.4623  25.4887  26.5348  30.0597

     occupation numbers 
     1.0000   1.0000   1.0000   1.0000   0.0000   0.0000   0.0000   0.0000

          k = 0.3750 0.3750 0.7500 (   115 PWs)   bands (ev):

    -1.3846   1.2069   8.1773  10.4233  21.4051  25.9328  26.3107  30.3368

     occupation numbers 
     1.0000   1.0000   1.0000   1.0000   0.0000   0.0000   0.0000   0.0000

          k = 0.3375 0.3375 0.6750 (   115 PWs)   bands (ev):

    -2.0410   1.6725   9.0352  10.3735  21.3658  25.7915  25.8413  29.4457

     occupation numbers 
     1.0000   1.0000   1.0000   1.0000   0.0000   0.0000   0.0000   0.0000

          k = 0.3000 0.3000 0.6000 (   115 PWs)   bands (ev):

    -3.1515   2.8735   9.9239  10.4686  21.4144  25.3942  25.5895  28.6851

     occupation numbers 
     1.0000   1.0000   1.0000   1.0000   0.0000   0.0000   0.0000   0.0000

          k = 0.2625 0.2625 0.5250 (   112 PWs)   bands (ev):

    -4.2222   4.3674  10.7150  10.8678  21.5542  24.9713  25.4039  28.2797

     occupation numbers 
     1.0000   1.0000   1.0000   1.0000   0.0000   0.0000   0.0000   0.0000

          k = 0.2250 0.2250 0.4500 (   115 PWs)   bands (ev):

    -5.2206   5.9142  11.0965  11.7134  21.5382  24.4141  24.8767  28.0812

     occupation numbers 
     1.0000   1.0000   1.0000   1.0000   0.0000   0.0000   0.0000   0.0000

          k = 0.1875 0.1875 0.3750 (   119 PWs)   bands (ev):

    -6.0569   7.5111  11.5944  12.3224  21.3349  23.6847  24.2423  28.1344

     occupation numbers 
     1.0000   1.0000   1.0000   1.0000   0.0000   0.0000   0.0000   0.0000

          k = 0.1500 0.1500 0.3000 (   119 PWs)   bands (ev):

    -6.7462   9.2042  12.1586  13.0188  21.1471  23.0028  23.3966  28.2840

     occupation numbers 
     1.0000   1.0000   1.0000   1.0000   0.0000   0.0000   0.0000   0.0000

          k = 0.1125 0.1125 0.2250 (   120 PWs)   bands (ev):

    -7.2925  10.8466  12.8367  13.5062  20.9605  22.3076  22.4517  28.0098

     occupation numbers 
     1.0000   1.0000   1.0000   1.0000   0.0000   0.0000   0.0000   0.0000

          k = 0.0750 0.0750 0.1500 (   118 PWs)   bands (ev):

    -7.6640  12.4869  13.5581  13.9554  20.7601  21.5738  21.6566  27.5489

     occupation numbers 
     1.0000   1.0000   1.0000   1.0000   0.0000   0.0000   0.0000   0.0000

          k = 0.0375 0.0375 0.0750 (   113 PWs)   bands (ev):

    -7.8389  13.8200  14.1209  14.2423  20.7639  21.0045  21.0293  27.1705

     occupation numbers 
     1.0000   1.0000   1.0000   1.0000   0.0000   0.0000   0.0000   0.0000

          k = 0.0000 0.0000 0.0000 (   113 PWs)   bands (ev):

    -7.9229  14.3388  14.3388  14.3388  20.7206  20.7206  20.7206  27.0304

     occupation numbers 
     1.0000   1.0000   1.0000   1.0000   0.0000   0.0000   0.0000   0.0000

          k = 0.0500 0.0500 0.0500 (   113 PWs)   bands (ev):

    -7.8483  13.8319  14.2204  14.2204  20.8858  20.8858  20.9566  27.1577

     occupation numbers 
     1.0000   1.0000   1.0000   1.0000   0.0000   0.0000   0.0000   0.0000

          k = 0.1000 0.1000 0.1000 (   116 PWs)   bands (ev):

    -7.6731  12.5091  13.9067  13.9067  21.2818  21.3102  21.3102  27.5355

     occupation numbers 
     1.0000   1.0000   1.0000   1.0000   0.0000   0.0000   0.0000   0.0000

          k = 0.1500 0.1500 0.1500 (   122 PWs)   bands (ev):

    -7.3966  10.8487  13.4508  13.4508  21.6709  21.6709  21.7051  28.1313

     occupation numbers 
     1.0000   1.0000   1.0000   1.0000   0.0000   0.0000   0.0000   0.0000

          k = 0.2000 0.2000 0.2000 (   122 PWs)   bands (ev):

    -6.9015   9.0570  12.9985  12.9985  22.0058  22.2524  22.2524  28.8515

     occupation numbers 
     1.0000   1.0000   1.0000   1.0000   0.0000   0.0000   0.0000   0.0000

          k = 0.2500 0.2500 0.2500 (   117 PWs)   bands (ev):

    -6.2798   7.5217  12.6757  12.6757  22.5093  22.7632  22.7632  29.5917

     occupation numbers 
     1.0000   1.0000   1.0000   1.0000   0.0000   0.0000   0.0000   0.0000

          k = 0.3000 0.3000 0.3000 (   114 PWs)   bands (ev):

    -5.5105   5.6917  12.3077  12.3077  22.8582  23.0676  23.0676  30.3410

     occupation numbers 
     1.0000   1.0000   1.0000   1.0000   0.0000   0.0000   0.0000   0.0000

          k = 0.3500 0.3500 0.3500 (   117 PWs)   bands (ev):

    -4.6560   3.9244  11.9891  11.9891  22.7981  23.1360  23.1360  30.6170

     occupation numbers 
     1.0000   1.0000   1.0000   1.0000   0.0000   0.0000   0.0000   0.0000

          k = 0.4000 0.4000 0.4000 (   114 PWs)   bands (ev):

    -3.6672   2.4562  11.7869  11.7869  22.7612  23.2490  23.2490  30.8169

     occupation numbers 
     1.0000   1.0000   1.0000   1.0000   0.0000   0.0000   0.0000   0.0000

          k = 0.4500 0.4500 0.4500 (   114 PWs)   bands (ev):

    -2.6799   1.0916  11.6596  11.6596  22.7429  23.2387  23.2387  30.8374

     occupation numbers 
     1.0000   1.0000   1.0000   1.0000   0.0000   0.0000   0.0000   0.0000

          k = 0.5000 0.5000 0.5000 (   120 PWs)   bands (ev):

    -2.1867   0.3945  11.3772  11.3772  22.6611  23.2140  23.2140  30.7232

     occupation numbers 
     1.0000   1.0000   1.0000   1.0000   0.0000   0.0000   0.0000   0.0000

          k = 0.4750 0.4750 0.4750 (   120 PWs)   bands (ev):

    -2.3500   0.5901  11.3889  11.3889  22.6642  23.2166  23.2166  30.7237

     occupation numbers 
     1.0000   1.0000   1.0000   1.0000   0.0000   0.0000   0.0000   0.0000

          k = 0.4500 0.4500 0.4500 (   114 PWs)   bands (ev):

    -2.6799   1.0916  11.6596  11.6596  22.7429  23.2387  23.2387  30.8374

     occupation numbers 
     1.0000   1.0000   1.0000   1.0000   0.0000   0.0000   0.0000   0.0000

          k = 0.4250 0.4250 0.4250 (   114 PWs)   bands (ev):

    -3.1606   1.7290  11.7117  11.7117  22.7493  23.2451  23.2451  30.8362

     occupation numbers 
     1.0000   1.0000   1.0000   1.0000   0.0000   0.0000   0.0000   0.0000

          k = 0.4000 0.4000 0.4000 (   114 PWs)   bands (ev):

    -3.6672   2.4562  11.7869  11.7869  22.7612  23.2490  23.2490  30.8169

     occupation numbers 
     1.0000   1.0000   1.0000   1.0000   0.0000   0.0000   0.0000   0.0000

          k = 0.3750 0.3750 0.3750 (   114 PWs)   bands (ev):

    -4.1694   3.2415  11.8849  11.8849  22.7780  23.2444  23.2444  30.7637

     occupation numbers 
     1.0000   1.0000   1.0000   1.0000   0.0000   0.0000   0.0000   0.0000

          k = 0.3500 0.3500 0.3500 (   117 PWs)   bands (ev):

    -4.6560   3.9244  11.9891  11.9891  22.7981  23.1360  23.1360  30.6170

     occupation numbers 
     1.0000   1.0000   1.0000   1.0000   0.0000   0.0000   0.0000   0.0000

          k = 0.3250 0.3250 0.3250 (   117 PWs)   bands (ev):

    -5.1146   4.7772  12.1302  12.1302  22.8208  23.0815  23.0815  30.4475

     occupation numbers 
     1.0000   1.0000   1.0000   1.0000   0.0000   0.0000   0.0000   0.0000

          k = 0.3000 0.3000 0.3000 (   114 PWs)   bands (ev):

    -5.5105   5.6917  12.3077  12.3077  22.8582  23.0676  23.0676  30.3410

     occupation numbers 
     1.0000   1.0000   1.0000   1.0000   0.0000   0.0000   0.0000   0.0000

          k = 0.2750 0.2750 0.2750 (   114 PWs)   bands (ev):

    -5.9108   6.6006  12.4886  12.4886  22.8739  22.9378  22.9378  30.0463

     occupation numbers 
     1.0000   1.0000   1.0000   1.0000   0.0000   0.0000   0.0000   0.0000

          k = 0.2500 0.2500 0.2500 (   117 PWs)   bands (ev):

    -6.2798   7.5217  12.6757  12.6757  22.5093  22.7632  22.7632  29.5917

     occupation numbers 
     1.0000   1.0000   1.0000   1.0000   0.0000   0.0000   0.0000   0.0000

     highest occupied, lowest unoccupied level (ev):    14.3388   20.7206

     Writing all to output data dir ./diamond.save/ :
     XML data file, pseudopotentials, collected wavefunctions

     init_run     :      0.22s CPU      0.25s WALL (       1 calls)
     electrons    :      0.33s CPU      0.42s WALL (       1 calls)

     Called by init_run:
     wfcinit      :      0.00s CPU      0.00s WALL (       1 calls)
     wfcinit:wfcr :      0.02s CPU      0.02s WALL (      51 calls)
     potinit      :      0.02s CPU      0.03s WALL (       1 calls)
     hinit0       :      0.19s CPU      0.19s WALL (       1 calls)

     Called by electrons:
     c_bands      :      0.33s CPU      0.41s WALL (       1 calls)
     v_of_rho     :      0.00s CPU      0.00s WALL (       1 calls)
     v_h          :      0.00s CPU      0.00s WALL (       1 calls)
     v_xc         :      0.00s CPU      0.00s WALL (       1 calls)

     Called by c_bands:
     init_us_2    :      0.00s CPU      0.00s WALL (      51 calls)
     cegterg      :      0.31s CPU      0.37s WALL (      82 calls)

     Called by sum_band:

     Called by *egterg:
     cdiaghg      :      0.13s CPU      0.15s WALL (    1159 calls)
     cegterg:over :      0.01s CPU      0.01s WALL (    1108 calls)
     cegterg:upda :      0.01s CPU      0.01s WALL (    1108 calls)
     cegterg:last :      0.00s CPU      0.01s WALL (     875 calls)
     h_psi        :      0.16s CPU      0.19s WALL (    1241 calls)
     g_psi        :      0.00s CPU      0.00s WALL (    1108 calls)

     Called by h_psi:
     h_psi:calbec :      0.01s CPU      0.01s WALL (    1241 calls)
     vloc_psi     :      0.14s CPU      0.17s WALL (    1241 calls)
     add_vuspsi   :      0.00s CPU      0.00s WALL (    1241 calls)

     General routines
     calbec       :      0.01s CPU      0.01s WALL (    1241 calls)
     fft          :      0.17s CPU      0.18s WALL (      11 calls)
     ffts         :      0.02s CPU      0.02s WALL (       1 calls)
     fftw         :      0.10s CPU      0.12s WALL (   15060 calls)
     interpolate  :      0.02s CPU      0.02s WALL (       1 calls)
     davcio       :      0.00s CPU      0.00s WALL (     102 calls)

     Parallel routines

     PWSCF        :      0.60s CPU      1.09s WALL


   This run was terminated on:  23:54:24   5Oct2024            

=------------------------------------------------------------------------------=
   JOB DONE.
=------------------------------------------------------------------------------=
