LAMMPS (23 Jun 2022 - Update 4)
OMP_NUM_THREADS environment is not set. Defaulting to 1 thread. (src/src/comm.cpp:98)
  using 1 OpenMP thread(s) per MPI task
# MSE 401 Lab 2
# Heat and cooling of Aluminum using Molecular Dynamics

# Section 1: Setting up initial parameters

# Define unit set and class of atomic model
units metal
atom_style atomic

# Parameters for Problems 2.1:
# -----------------------------------------------------------------------------
variable TempInitial equal 900
variable TempFinal equal 2000
variable TempStep equal 25
variable StepSize equal 0.001
# -----------------------------------------------------------------------------

# Periodic boundary conditions along all three dimensions
boundary p p p

# Create an FCC lattice with the lattice spacing supplied supplied by the user
# using a single conventional (orthogonal) unit cell

lattice fcc 4.04525
Lattice spacing in x,y,z = 4.04525 4.04525 4.04525
region  box block 0 2 0 2 0 2 units lattice
create_box  1 box
Created orthogonal box = (0 0 0) to (8.0905 8.0905 8.0905)
  1 by 1 by 2 MPI processor grid
create_atoms 1 box
Created 32 atoms
  using lattice units in orthogonal box = (0 0 0) to (8.0905 8.0905 8.0905)
  create_atoms CPU = 0.000 seconds

# Specify which force fields or potentials to use
pair_style eam/alloy
pair_coeff * * ./Al_mm.eam.fs  Al
Reading eam/alloy potential file ./Al_mm.eam.fs with DATE: 2007-06-11
#pair_style	lj/cut 2.5
#pair_coeff	1 1 1.0 1.0 2.5

# Create files outside of any loops
variable prallfile string prall.txt
# Print headers
print "Temp                     Press                     Vol                     Etotal" file ${prallfile}
print "Temp                     Press                     Vol                     Etotal" file prall.txt
Temp                     Press                     Vol                     Etotal

# Set what thermodynamic information to print to log
compute mytemp all temp
compute mypress all pressure thermo_temp
# compute statements to normalize the pe and ke
compute NormPE all pe/atom
compute NormKE all ke/atom
# calculate average value over atoms
compute avgPE all reduce ave c_NormPE
compute avgKE all reduce ave c_NormKE
# create variables for average Etotal, Temp, and Pressure, and vol
variable avgEtotal   equal c_avgPE+c_avgKE
variable vmytemp   equal c_mytemp
variable vmypress   equal c_mypress
variable vmyvol  equal vol

# set thermo style which determines what thermo data will be displayed on each timestep of our runs
thermo_style custom step time temp pe ke etotal c_mytemp c_mypress vol
timestep 0.001

# Section 2: Starting MD runs

# NVE stabilization run
variable tempinit equal 600 # Use 2*${tempvar} for fixed E ensemble.
velocity all create ${tempinit} 825577 dist gaussian
velocity all create 600 825577 dist gaussian
fix 1 all nve # nve ensemble molecular dynamics.
fix 2 all ave/time 1 10 10 c_mytemp c_mypress v_vmyvol v_avgEtotal file nveeqfile.txt
thermo 1000 # Print every "thermo" timesteps
run 5000
Neighbor list info ...
  update every 1 steps, delay 10 steps, check yes
  max neighbors/atom: 2000, page size: 100000
  master list distance cutoff = 8.5
  ghost atom cutoff = 8.5
  binsize = 4.25, bins = 2 2 2
  1 neighbor lists, perpetual/occasional/extra = 1 0 0
  (1) pair eam/alloy, perpetual
      attributes: half, newton on
      pair build: half/bin/atomonly/newton
      stencil: half/bin/3d
      bin: standard
Per MPI rank memory allocation (min/avg/max) = 3.346 | 3.346 | 3.346 Mbytes
   Step          Time           Temp          PotEng         KinEng         TotEng        c_mytemp      c_mypress        Volume    
         0   0              600           -109.14102      2.4042387     -106.73678      600            4854.6303      529.57331    
      1000   1              297.43987     -107.9281       1.1918607     -106.73624      297.43987      16140.891      529.57331    
      2000   2              328.31007     -108.05193      1.3155596     -106.73637      328.31007      15910.49       529.57331    
      3000   3              323.22736     -108.03156      1.2951929     -106.73636      323.22736      15720.917      529.57331    
      4000   4              271.89734     -107.82573      1.0895102     -106.73622      271.89734      16892.09       529.57331    
      5000   5              350.10661     -108.13931      1.4028998     -106.73641      350.10661      15163.968      529.57331    
Loop time of 0.369757 on 2 procs for 5000 steps with 32 atoms

Performance: 1168.335 ns/day, 0.021 hours/ns, 13522.401 timesteps/s
98.0% CPU use with 2 MPI tasks x 1 OpenMP threads

MPI task timing breakdown:
Section |  min time  |  avg time  |  max time  |%varavg| %total
---------------------------------------------------------------
Pair    | 0.23515    | 0.25381    | 0.27247    |   3.7 | 68.64
Neigh   | 0          | 0          | 0          |   0.0 |  0.00
Comm    | 0.051126   | 0.068913   | 0.086701   |   6.8 | 18.64
Output  | 0.00011468 | 0.00012971 | 0.00014475 |   0.0 |  0.04
Modify  | 0.038006   | 0.040827   | 0.043648   |   1.4 | 11.04
Other   |            | 0.006077   |            |       |  1.64

Nlocal:             16 ave          16 max          16 min
Histogram: 2 0 0 0 0 0 0 0 0 0
Nghost:            914 ave         914 max         914 min
Histogram: 2 0 0 0 0 0 0 0 0 0
Neighs:           1120 ave        1314 max         926 min
Histogram: 1 0 0 0 0 0 0 0 0 1

Total # of neighbors = 2240
Ave neighs/atom = 70
Neighbor list builds = 0
Dangerous builds = 0
unfix 2
unfix 1

# NPT stabilization run
fix 1 all npt temp 700 700 0.1 iso 0 0 1 drag 1 # npt ensemble molecular dynamics.
fix 2 all ave/time 1 10 10 c_mytemp c_mypress v_vmyvol v_avgEtotal file npteqfile.txt
thermo 1000
run 5000
Per MPI rank memory allocation (min/avg/max) = 3.605 | 3.605 | 3.605 Mbytes
   Step          Time           Temp          PotEng         KinEng         TotEng        c_mytemp      c_mypress        Volume    
      5000   5              350.10661     -108.13931      1.4028998     -106.73641      350.10661      15163.968      529.57331    
      6000   6              720.92222     -106.1237       2.8887818     -103.23492      720.92222      842.91275      552.92334    
      7000   7              776.70003     -106.36089      3.1122871     -103.2486       776.70003     -2273.1168      554.24929    
      8000   8              697.00599     -106.07867      2.7929479     -103.28572      697.00599      2989.1106      552.92524    
      9000   9              677.13272     -105.94413      2.7133145     -103.23082      677.13272     -4267.2955      556.77797    
     10000   10             612.06895     -105.67625      2.4525998     -103.22365      612.06895      1861.117       556.01017    
Loop time of 0.383641 on 2 procs for 5000 steps with 32 atoms

Performance: 1126.052 ns/day, 0.021 hours/ns, 13033.010 timesteps/s
95.1% CPU use with 2 MPI tasks x 1 OpenMP threads

MPI task timing breakdown:
Section |  min time  |  avg time  |  max time  |%varavg| %total
---------------------------------------------------------------
Pair    | 0.2485     | 0.25441    | 0.26033    |   1.2 | 66.32
Neigh   | 0          | 0          | 0          |   0.0 |  0.00
Comm    | 0.052366   | 0.057774   | 0.063182   |   2.3 | 15.06
Output  | 0.00013192 | 0.00045902 | 0.00078612 |   0.0 |  0.12
Modify  | 0.066118   | 0.066574   | 0.067031   |   0.2 | 17.35
Other   |            | 0.004421   |            |       |  1.15

Nlocal:             16 ave          17 max          15 min
Histogram: 1 0 0 0 0 0 0 0 0 1
Nghost:            914 ave         915 max         913 min
Histogram: 1 0 0 0 0 0 0 0 0 1
Neighs:         1184.5 ave        1272 max        1097 min
Histogram: 1 0 0 0 0 0 0 0 0 1

Total # of neighbors = 2369
Ave neighs/atom = 74.03125
Neighbor list builds = 0
Dangerous builds = 0
unfix 2
unfix 1

# --------------------------------------------------------------------------------------------
# Generate loops to ramp temperature up
variable LoopSize equal 21
label LoopStart
variable i loop ${LoopSize}
variable i loop 21
print " "
 
print "*******LOOP # $i*********"
*******LOOP # 1*********
print " "
 
variable tempvar equal ${TempStep}*${i}+${TempInitial}-${TempStep}
variable tempvar equal 25*${i}+${TempInitial}-${TempStep}
variable tempvar equal 25*1+${TempInitial}-${TempStep}
variable tempvar equal 25*1+900-${TempStep}
variable tempvar equal 25*1+900-25
variable rampup_eqavgfile string rampup_eqavg_${tempvar}.txt
variable rampup_eqavgfile string rampup_eqavg_900.txt
variable rampup_pravgfile string rampup_pravg_${tempvar}.txt
variable rampup_pravgfile string rampup_pravg_900.txt
# variable rampup_eqfile string rampup_eq_${tempvar}.txt

# NPT Equilibration run at temperature
reset_timestep 0
variable eqrunl equal 1E4 # Keep > 10000 to avoid crashing fix lines below for time avg output
fix 1 all npt temp ${tempvar} ${tempvar} 0.1 iso 0 0 1 drag 1 # npt ensemble molecular dynamics.
fix 1 all npt temp 900 ${tempvar} 0.1 iso 0 0 1 drag 1 
fix 1 all npt temp 900 900 0.1 iso 0 0 1 drag 1 

fix 2 all ave/time 1 10 10 c_mytemp c_mypress v_vmyvol v_avgEtotal file ${rampup_eqavgfile}
fix 2 all ave/time 1 10 10 c_mytemp c_mypress v_vmyvol v_avgEtotal file rampup_eqavg_900.txt
# print to file average of every 10 steps. Every 10 femptoseconds


# fix 3 all ave/time 1 10000 10000 c_mytemp c_mypress v_vmyvol v_avgEtotal file ${rampup_eqfile}
thermo 1000 # Print every "thermo" timesteps
run ${eqrunl}
run 10000
Per MPI rank memory allocation (min/avg/max) = 3.605 | 3.605 | 3.605 Mbytes
   Step          Time           Temp          PotEng         KinEng         TotEng        c_mytemp      c_mypress        Volume    
         0   0              612.06895     -105.67625      2.4525998     -103.22365      612.06895      1861.117       556.01017    
      1000   1              841.03004     -104.50695      3.3700616     -101.13689      841.03004      196.17373      566.41405    
      2000   2              734.88132     -104.35243      2.9447168     -101.40772      734.88132      18740.151      555.6813     
      3000   3              1062.6183     -105.36902      4.25798       -101.11104      1062.6183     -479.61475      561.43859    
      4000   4              696.08909     -103.99678      2.7892739     -101.2075       696.08909      6347.489       563.59632    
      5000   5              705.14108     -104.11304      2.8255458     -101.28749      705.14108      21.289713      568.2001     
      6000   6              807.37759     -104.53201      3.2352141     -101.29679      807.37759      7222.203       558.78045    
      7000   7              771.57934     -104.45764      3.0917682     -101.36587      771.57934      5094.9807      560.79446    
      8000   8              871.0648      -104.73316      3.4904128     -101.24274      871.0648      -4020.647       567.23706    
      9000   9              922.75921     -104.88572      3.6975557     -101.18816      922.75921     -11417.445      570.90091    
     10000   10             866.14396     -104.51704      3.4706947     -101.04635      866.14396      225.16108      566.12835    
Loop time of 0.794373 on 2 procs for 10000 steps with 32 atoms

Performance: 1087.651 ns/day, 0.022 hours/ns, 12588.549 timesteps/s
97.8% CPU use with 2 MPI tasks x 1 OpenMP threads

MPI task timing breakdown:
Section |  min time  |  avg time  |  max time  |%varavg| %total
---------------------------------------------------------------
Pair    | 0.46699    | 0.50712    | 0.54725    |   5.6 | 63.84
Neigh   | 0.0016292  | 0.0018432  | 0.0020573  |   0.5 |  0.23
Comm    | 0.10443    | 0.14307    | 0.18171    |  10.2 | 18.01
Output  | 0.00015078 | 0.00018171 | 0.00021264 |   0.0 |  0.02
Modify  | 0.13173    | 0.13323    | 0.13472    |   0.4 | 16.77
Other   |            | 0.008923   |            |       |  1.12

Nlocal:             16 ave          17 max          15 min
Histogram: 1 0 0 0 0 0 0 0 0 1
Nghost:          880.5 ave         889 max         872 min
Histogram: 1 0 0 0 0 0 0 0 0 1
Neighs:         1156.5 ave        1475 max         838 min
Histogram: 1 0 0 0 0 0 0 0 0 1

Total # of neighbors = 2313
Ave neighs/atom = 72.28125
Neighbor list builds = 40
Dangerous builds = 0
unfix 2
# unfix 3

# NPT Production run at temperature
reset_timestep 0
variable prrunl equal 1E4
fix 3 all ave/time 1 10000 10000 c_mytemp c_mypress v_vmyvol v_avgEtotal
fix 4 all ave/time 1 10 10 c_mytemp c_mypress v_vmyvol v_avgEtotal file ${rampup_pravgfile}
fix 4 all ave/time 1 10 10 c_mytemp c_mypress v_vmyvol v_avgEtotal file rampup_pravg_900.txt
# print to file average of every 10 steps. Every 10 femptoseconds

thermo 1000 # Print every "thermo" timesteps
run ${prrunl}
run 10000
Per MPI rank memory allocation (min/avg/max) = 3.605 | 3.605 | 3.605 Mbytes
   Step          Time           Temp          PotEng         KinEng         TotEng        c_mytemp      c_mypress        Volume    
         0   0              866.14396     -104.51704      3.4706947     -101.04635      866.14396      225.16108      566.12835    
      1000   1              998.06481     -105.34053      3.99931       -101.34122      998.06481      1516.3601      560.38988    
      2000   2              971.30391     -105.12517      3.8920774     -101.23309      971.30391      1743.5681      559.52279    
      3000   3              835.05287     -104.62968      3.3461107     -101.28357      835.05287      1736.2506      563.05144    
      4000   4              1008.8686     -105.24581      4.0426016     -101.20321      1008.8686     -6672.9909      565.29733    
      5000   5              962.9829      -105.15114      3.8587346     -101.29241      962.9829      -2349.1282      562.88584    
      6000   6              973.24512     -105.13465      3.899856      -101.2348       973.24512      1991.9092      559.14865    
      7000   7              974.04434     -105.19243      3.9030585     -101.28937      974.04434     -593.42553      562.44199    
      8000   8              805.46851     -104.45656      3.2275643     -101.22899      805.46851     -3403.1661      567.72333    
      9000   9              854.49463     -104.53163      3.4240151     -101.10761      854.49463      4478.5564      564.97291    
     10000   10             920.1272      -104.81902      3.687009      -101.13201      920.1272       1514.1403      562.382      
Loop time of 0.853229 on 2 procs for 10000 steps with 32 atoms

Performance: 1012.624 ns/day, 0.024 hours/ns, 11720.184 timesteps/s
97.6% CPU use with 2 MPI tasks x 1 OpenMP threads

MPI task timing breakdown:
Section |  min time  |  avg time  |  max time  |%varavg| %total
---------------------------------------------------------------
Pair    | 0.48343    | 0.51285    | 0.54226    |   4.1 | 60.11
Neigh   | 0.0016322  | 0.0018471  | 0.0020621  |   0.5 |  0.22
Comm    | 0.10759    | 0.13575    | 0.16391    |   7.6 | 15.91
Output  | 0.00013618 | 0.0001672  | 0.00019822 |   0.0 |  0.02
Modify  | 0.1924     | 0.19364    | 0.19488    |   0.3 | 22.70
Other   |            | 0.008975   |            |       |  1.05

Nlocal:             16 ave          17 max          15 min
Histogram: 1 0 0 0 0 0 0 0 0 1
Nghost:            882 ave         904 max         860 min
Histogram: 1 0 0 0 0 0 0 0 0 1
Neighs:         1162.5 ave        1481 max         844 min
Histogram: 1 0 0 0 0 0 0 0 0 1

Total # of neighbors = 2325
Ave neighs/atom = 72.65625
Neighbor list builds = 40
Dangerous builds = 0
variable final_temp_avg equal f_3[1]
variable final_press_avg equal f_3[2]
variable final_vol_avg equal f_3[3]
variable final_etot_avg equal f_3[4]

print "${final_temp_avg} ${final_press_avg} ${final_vol_avg} ${final_etot_avg}" append ${prallfile}
print "${final_temp_avg} ${final_press_avg} ${final_vol_avg} ${final_etot_avg}" append prall.txt
899.334651510141 -216.436145708014 563.441926917527 -3.16415927425068

unfix 3
unfix 4
#unfix 1

next i
jump Ramp.txt.in LoopStart
variable i loop ${LoopSize}
variable i loop 21
print " "
 
print "*******LOOP # $i*********"
*******LOOP # 2*********
print " "
 
variable tempvar equal ${TempStep}*${i}+${TempInitial}-${TempStep}
variable tempvar equal 25*${i}+${TempInitial}-${TempStep}
variable tempvar equal 25*2+${TempInitial}-${TempStep}
variable tempvar equal 25*2+900-${TempStep}
variable tempvar equal 25*2+900-25
variable rampup_eqavgfile string rampup_eqavg_${tempvar}.txt
variable rampup_eqavgfile string rampup_eqavg_925.txt
variable rampup_pravgfile string rampup_pravg_${tempvar}.txt
variable rampup_pravgfile string rampup_pravg_925.txt
# variable rampup_eqfile string rampup_eq_${tempvar}.txt

# NPT Equilibration run at temperature
reset_timestep 0
variable eqrunl equal 1E4 # Keep > 10000 to avoid crashing fix lines below for time avg output
fix 1 all npt temp ${tempvar} ${tempvar} 0.1 iso 0 0 1 drag 1 # npt ensemble molecular dynamics.
fix 1 all npt temp 925 ${tempvar} 0.1 iso 0 0 1 drag 1 
fix 1 all npt temp 925 925 0.1 iso 0 0 1 drag 1 

fix 2 all ave/time 1 10 10 c_mytemp c_mypress v_vmyvol v_avgEtotal file ${rampup_eqavgfile}
fix 2 all ave/time 1 10 10 c_mytemp c_mypress v_vmyvol v_avgEtotal file rampup_eqavg_925.txt
# print to file average of every 10 steps. Every 10 femptoseconds


# fix 3 all ave/time 1 10000 10000 c_mytemp c_mypress v_vmyvol v_avgEtotal file ${rampup_eqfile}
thermo 1000 # Print every "thermo" timesteps
run ${eqrunl}
run 10000
Per MPI rank memory allocation (min/avg/max) = 3.605 | 3.605 | 3.605 Mbytes
   Step          Time           Temp          PotEng         KinEng         TotEng        c_mytemp      c_mypress        Volume    
         0   0              920.1272      -104.81902      3.687009      -101.13201      920.1272       1514.1403      562.382      
      1000   1              925.47799     -104.54279      3.70845       -100.83434      925.47799     -5773.7819      567.92323    
      2000   2              1018.8496     -105.04485      4.0825961     -100.96225      1018.8496     -4858.4147      566.57407    
      3000   3              913.90212     -104.68599      3.6620647     -101.02392      913.90212     -2080.6641      568.90303    
      4000   4              790.36651     -104.2036       3.1670496     -101.03655      790.36651      8332.7634      561.43062    
      5000   5              965.22823     -104.62542      3.8677318     -100.75769      965.22823     -4442.8005      568.78825    
      6000   6              920.78547     -104.58417      3.6896468     -100.89452      920.78547     -5392.977       569.18205    
      7000   7              838.62746     -104.2911       3.3604343     -100.93067      838.62746      849.23667      564.85745    
      8000   8              805.69325     -104.22596      3.2284648     -100.99749      805.69325      448.41558      567.3111     
      9000   9              750.85674     -104.04645      3.0087314     -101.03772      750.85674      6895.5671      562.92109    
     10000   10             966.08863     -104.75253      3.8711795     -100.88135      966.08863      2990.3908      563.29029    
Loop time of 0.81787 on 2 procs for 10000 steps with 32 atoms

Performance: 1056.402 ns/day, 0.023 hours/ns, 12226.875 timesteps/s
98.0% CPU use with 2 MPI tasks x 1 OpenMP threads

MPI task timing breakdown:
Section |  min time  |  avg time  |  max time  |%varavg| %total
---------------------------------------------------------------
Pair    | 0.47865    | 0.52079    | 0.56293    |   5.8 | 63.68
Neigh   | 0.0024566  | 0.0028028  | 0.003149   |   0.7 |  0.34
Comm    | 0.11062    | 0.15132    | 0.19202    |  10.5 | 18.50
Output  | 0.0002243  | 0.00053314 | 0.00084197 |   0.0 |  0.07
Modify  | 0.13213    | 0.13347    | 0.13482    |   0.4 | 16.32
Other   |            | 0.008952   |            |       |  1.09

Nlocal:             16 ave          19 max          13 min
Histogram: 1 0 0 0 0 0 0 0 0 1
Nghost:          900.5 ave         908 max         893 min
Histogram: 1 0 0 0 0 0 0 0 0 1
Neighs:           1151 ave        1523 max         779 min
Histogram: 1 0 0 0 0 0 0 0 0 1

Total # of neighbors = 2302
Ave neighs/atom = 71.9375
Neighbor list builds = 61
Dangerous builds = 0
unfix 2
# unfix 3

# NPT Production run at temperature
reset_timestep 0
variable prrunl equal 1E4
fix 3 all ave/time 1 10000 10000 c_mytemp c_mypress v_vmyvol v_avgEtotal
fix 4 all ave/time 1 10 10 c_mytemp c_mypress v_vmyvol v_avgEtotal file ${rampup_pravgfile}
fix 4 all ave/time 1 10 10 c_mytemp c_mypress v_vmyvol v_avgEtotal file rampup_pravg_925.txt
# print to file average of every 10 steps. Every 10 femptoseconds

thermo 1000 # Print every "thermo" timesteps
run ${prrunl}
run 10000
Per MPI rank memory allocation (min/avg/max) = 3.605 | 3.605 | 3.605 Mbytes
   Step          Time           Temp          PotEng         KinEng         TotEng        c_mytemp      c_mypress        Volume    
         0   0              966.08863     -104.75253      3.8711795     -100.88135      966.08863      2990.3908      563.29029    
      1000   1              796.59525     -104.20739      3.1920085     -101.01538      796.59525      1473.8417      565.57938    
      2000   2              852.27646     -104.3757       3.4151268     -100.96057      852.27646      7876.3878      561.33278    
      3000   3              926.80441     -104.77446      3.713765      -101.06069      926.80441      1732.1845      562.198      
      4000   4              848.07127     -104.29136      3.3982763     -100.89308      848.07127      3644.3235      564.29186    
      5000   5              865.51595     -104.47403      3.4681782     -101.00585      865.51595      641.99766      565.72172    
      6000   6              1044.0728     -105.0537       4.1836672     -100.87003      1044.0728     -6640.1514      569.75075    
      7000   7              918.83569     -104.64031      3.6818339     -100.95848      918.83569      4075.6213      562.21903    
      8000   8              851.40884     -104.32616      3.4116501     -100.91451      851.40884      4493.1715      564.696      
      9000   9              902.61093     -104.40468      3.6168202     -100.78786      902.61093      5933.9563      564.71926    
     10000   10             861.52184     -104.35269      3.4521736     -100.90052      861.52184     -4464.3829      570.4589     
Loop time of 0.860423 on 2 procs for 10000 steps with 32 atoms

Performance: 1004.157 ns/day, 0.024 hours/ns, 11622.185 timesteps/s
97.5% CPU use with 2 MPI tasks x 1 OpenMP threads

MPI task timing breakdown:
Section |  min time  |  avg time  |  max time  |%varavg| %total
---------------------------------------------------------------
Pair    | 0.48803    | 0.51677    | 0.54551    |   4.0 | 60.06
Neigh   | 0.0021688  | 0.0024777  | 0.0027866  |   0.6 |  0.29
Comm    | 0.11059    | 0.1382     | 0.1658     |   7.4 | 16.06
Output  | 0.00013943 | 0.0001718  | 0.00020417 |   0.0 |  0.02
Modify  | 0.19224    | 0.19381    | 0.19537    |   0.4 | 22.52
Other   |            | 0.008999   |            |       |  1.05

Nlocal:             16 ave          20 max          12 min
Histogram: 1 0 0 0 0 0 0 0 0 1
Nghost:            884 ave         886 max         882 min
Histogram: 1 0 0 0 0 0 0 0 0 1
Neighs:           1151 ave        1634 max         668 min
Histogram: 1 0 0 0 0 0 0 0 0 1

Total # of neighbors = 2302
Ave neighs/atom = 71.9375
Neighbor list builds = 55
Dangerous builds = 0
variable final_temp_avg equal f_3[1]
variable final_press_avg equal f_3[2]
variable final_vol_avg equal f_3[3]
variable final_etot_avg equal f_3[4]

print "${final_temp_avg} ${final_press_avg} ${final_vol_avg} ${final_etot_avg}" append ${prallfile}
print "${final_temp_avg} ${final_press_avg} ${final_vol_avg} ${final_etot_avg}" append prall.txt
923.663277526624 -194.705275773525 565.073335578532 -3.15510430854067

unfix 3
unfix 4
#unfix 1

next i
jump Ramp.txt.in LoopStart
variable i loop ${LoopSize}
variable i loop 21
print " "
 
print "*******LOOP # $i*********"
*******LOOP # 3*********
print " "
 
variable tempvar equal ${TempStep}*${i}+${TempInitial}-${TempStep}
variable tempvar equal 25*${i}+${TempInitial}-${TempStep}
variable tempvar equal 25*3+${TempInitial}-${TempStep}
variable tempvar equal 25*3+900-${TempStep}
variable tempvar equal 25*3+900-25
variable rampup_eqavgfile string rampup_eqavg_${tempvar}.txt
variable rampup_eqavgfile string rampup_eqavg_950.txt
variable rampup_pravgfile string rampup_pravg_${tempvar}.txt
variable rampup_pravgfile string rampup_pravg_950.txt
# variable rampup_eqfile string rampup_eq_${tempvar}.txt

# NPT Equilibration run at temperature
reset_timestep 0
variable eqrunl equal 1E4 # Keep > 10000 to avoid crashing fix lines below for time avg output
fix 1 all npt temp ${tempvar} ${tempvar} 0.1 iso 0 0 1 drag 1 # npt ensemble molecular dynamics.
fix 1 all npt temp 950 ${tempvar} 0.1 iso 0 0 1 drag 1 
fix 1 all npt temp 950 950 0.1 iso 0 0 1 drag 1 

fix 2 all ave/time 1 10 10 c_mytemp c_mypress v_vmyvol v_avgEtotal file ${rampup_eqavgfile}
fix 2 all ave/time 1 10 10 c_mytemp c_mypress v_vmyvol v_avgEtotal file rampup_eqavg_950.txt
# print to file average of every 10 steps. Every 10 femptoseconds


# fix 3 all ave/time 1 10000 10000 c_mytemp c_mypress v_vmyvol v_avgEtotal file ${rampup_eqfile}
thermo 1000 # Print every "thermo" timesteps
run ${eqrunl}
run 10000
Per MPI rank memory allocation (min/avg/max) = 3.605 | 3.605 | 3.605 Mbytes
   Step          Time           Temp          PotEng         KinEng         TotEng        c_mytemp      c_mypress        Volume    
         0   0              861.52184     -104.35269      3.4521736     -100.90052      861.52184     -4464.3829      570.4589     
      1000   1              1065.3028     -105.02128      4.2687371     -100.75254      1065.3028     -1029.6456      563.62062    
      2000   2              923.21225     -104.46075      3.699371      -100.76138      923.21225     -5749.2342      569.2721     
      3000   3              975.21706     -104.7563       3.9077576     -100.84854      975.21706      88.464064      564.62166    
      4000   4              806.61702     -103.75013      3.2321664     -100.51796      806.61702      3441.6114      571.09365    
      5000   5              922.37554     -104.30896      3.6960183     -100.61294      922.37554      6454.7554      564.6148     
      6000   6              853.64098     -104.19659      3.4205945     -100.77599      853.64098     -5352.9388      571.67104    
      7000   7              798.6705      -104.09042      3.2003242     -100.8901       798.6705       3685.992       568.04249    
      8000   8              943.9338      -104.44802      3.7824036     -100.66561      943.9338       9518.5868      559.57022    
      9000   9              892.96816     -104.17681      3.578181      -100.59863      892.96816      3981.3256      565.68199    
     10000   10             960.15256     -104.50091      3.8473932     -100.65352      960.15256      9157.7132      562.63679    
Loop time of 0.819217 on 2 procs for 10000 steps with 32 atoms

Performance: 1054.665 ns/day, 0.023 hours/ns, 12206.775 timesteps/s
97.8% CPU use with 2 MPI tasks x 1 OpenMP threads

MPI task timing breakdown:
Section |  min time  |  avg time  |  max time  |%varavg| %total
---------------------------------------------------------------
Pair    | 0.4638     | 0.51498    | 0.56617    |   7.1 | 62.86
Neigh   | 0.002303   | 0.0026123  | 0.0029217  |   0.6 |  0.32
Comm    | 0.11061    | 0.16041    | 0.21021    |  12.4 | 19.58
Output  | 0.00012656 | 0.00015801 | 0.00018947 |   0.0 |  0.02
Modify  | 0.13064    | 0.13215    | 0.13365    |   0.4 | 16.13
Other   |            | 0.008908   |            |       |  1.09

Nlocal:             16 ave          17 max          15 min
Histogram: 1 0 0 0 0 0 0 0 0 1
Nghost:          864.5 ave         867 max         862 min
Histogram: 1 0 0 0 0 0 0 0 0 1
Neighs:         1151.5 ave        1417 max         886 min
Histogram: 1 0 0 0 0 0 0 0 0 1

Total # of neighbors = 2303
Ave neighs/atom = 71.96875
Neighbor list builds = 58
Dangerous builds = 0
unfix 2
# unfix 3

# NPT Production run at temperature
reset_timestep 0
variable prrunl equal 1E4
fix 3 all ave/time 1 10000 10000 c_mytemp c_mypress v_vmyvol v_avgEtotal
fix 4 all ave/time 1 10 10 c_mytemp c_mypress v_vmyvol v_avgEtotal file ${rampup_pravgfile}
fix 4 all ave/time 1 10 10 c_mytemp c_mypress v_vmyvol v_avgEtotal file rampup_pravg_950.txt
# print to file average of every 10 steps. Every 10 femptoseconds

thermo 1000 # Print every "thermo" timesteps
run ${prrunl}
run 10000
Per MPI rank memory allocation (min/avg/max) = 3.605 | 3.605 | 3.605 Mbytes
   Step          Time           Temp          PotEng         KinEng         TotEng        c_mytemp      c_mypress        Volume    
         0   0              960.15256     -104.50091      3.8473932     -100.65352      960.15256      9157.7132      562.63679    
      1000   1              868.31678     -104.07296      3.4794013     -100.59356      868.31678      806.22925      570.41646    
      2000   2              1124.7023     -104.93381      4.5067548     -100.42706      1124.7023     -7038.0273      569.26143    
      3000   3              1079.0666     -104.92404      4.3238896     -100.60015      1079.0666     -1061.8201      564.58001    
      4000   4              1014.8984     -104.77062      4.0667635     -100.70385      1014.8984      697.24636      564.5491     
      5000   5              928.76273     -104.62678      3.7216122     -100.90517      928.76273     -5798.6803      567.99927    
      6000   6              870.45405     -104.31142      3.4879655     -100.82346      870.45405      4268.6012      562.23549    
      7000   7              1089.6112     -105.0199       4.3661423     -100.65375      1089.6112     -14958.17       574.16545    
      8000   8              932.63754     -104.4331       3.7371388     -100.69597      932.63754      8958.6302      559.49987    
      9000   9              1048.9284     -104.67534      4.2031238     -100.47222      1048.9284     -3747.5543      567.90556    
     10000   10             924.27034     -104.39954      3.7036109     -100.69593      924.27034     -8268.164       571.43686    
Loop time of 0.907097 on 2 procs for 10000 steps with 32 atoms

Performance: 952.489 ns/day, 0.025 hours/ns, 11024.178 timesteps/s
97.8% CPU use with 2 MPI tasks x 1 OpenMP threads

MPI task timing breakdown:
Section |  min time  |  avg time  |  max time  |%varavg| %total
---------------------------------------------------------------
Pair    | 0.48702    | 0.53607    | 0.58512    |   6.7 | 59.10
Neigh   | 0.0026948  | 0.0030555  | 0.0034163  |   0.7 |  0.34
Comm    | 0.1104     | 0.15785    | 0.2053     |  11.9 | 17.40
Output  | 0.00024081 | 0.00060079 | 0.00096078 |   0.0 |  0.07
Modify  | 0.19841    | 0.19969    | 0.20096    |   0.3 | 22.01
Other   |            | 0.009833   |            |       |  1.08

Nlocal:             16 ave          19 max          13 min
Histogram: 1 0 0 0 0 0 0 0 0 1
Nghost:            866 ave         869 max         863 min
Histogram: 1 0 0 0 0 0 0 0 0 1
Neighs:           1154 ave        1228 max        1080 min
Histogram: 1 0 0 0 0 0 0 0 0 1

Total # of neighbors = 2308
Ave neighs/atom = 72.125
Neighbor list builds = 66
Dangerous builds = 0
variable final_temp_avg equal f_3[1]
variable final_press_avg equal f_3[2]
variable final_vol_avg equal f_3[3]
variable final_etot_avg equal f_3[4]

print "${final_temp_avg} ${final_press_avg} ${final_vol_avg} ${final_etot_avg}" append ${prallfile}
print "${final_temp_avg} ${final_press_avg} ${final_vol_avg} ${final_etot_avg}" append prall.txt
948.510361083186 -202.49093495877 566.067519123133 -3.1475037969468

unfix 3
unfix 4
#unfix 1

next i
jump Ramp.txt.in LoopStart
variable i loop ${LoopSize}
variable i loop 21
print " "
 
print "*******LOOP # $i*********"
*******LOOP # 4*********
print " "
 
variable tempvar equal ${TempStep}*${i}+${TempInitial}-${TempStep}
variable tempvar equal 25*${i}+${TempInitial}-${TempStep}
variable tempvar equal 25*4+${TempInitial}-${TempStep}
variable tempvar equal 25*4+900-${TempStep}
variable tempvar equal 25*4+900-25
variable rampup_eqavgfile string rampup_eqavg_${tempvar}.txt
variable rampup_eqavgfile string rampup_eqavg_975.txt
variable rampup_pravgfile string rampup_pravg_${tempvar}.txt
variable rampup_pravgfile string rampup_pravg_975.txt
# variable rampup_eqfile string rampup_eq_${tempvar}.txt

# NPT Equilibration run at temperature
reset_timestep 0
variable eqrunl equal 1E4 # Keep > 10000 to avoid crashing fix lines below for time avg output
fix 1 all npt temp ${tempvar} ${tempvar} 0.1 iso 0 0 1 drag 1 # npt ensemble molecular dynamics.
fix 1 all npt temp 975 ${tempvar} 0.1 iso 0 0 1 drag 1 
fix 1 all npt temp 975 975 0.1 iso 0 0 1 drag 1 

fix 2 all ave/time 1 10 10 c_mytemp c_mypress v_vmyvol v_avgEtotal file ${rampup_eqavgfile}
fix 2 all ave/time 1 10 10 c_mytemp c_mypress v_vmyvol v_avgEtotal file rampup_eqavg_975.txt
# print to file average of every 10 steps. Every 10 femptoseconds


# fix 3 all ave/time 1 10000 10000 c_mytemp c_mypress v_vmyvol v_avgEtotal file ${rampup_eqfile}
thermo 1000 # Print every "thermo" timesteps
run ${eqrunl}
run 10000
Per MPI rank memory allocation (min/avg/max) = 3.605 | 3.605 | 3.605 Mbytes
   Step          Time           Temp          PotEng         KinEng         TotEng        c_mytemp      c_mypress        Volume    
         0   0              924.27034     -104.39954      3.7036109     -100.69593      924.27034     -8268.164       571.43686    
      1000   1              917.61515     -104.19108      3.6769431     -100.51414      917.61515      65.437771      566.61101    
      2000   2              1047.003      -104.51533      4.1954084     -100.31992      1047.003      -2926.6786      569.44699    
      3000   3              868.8524      -103.91431      3.4815476     -100.43276      868.8524       1280.1928      567.28046    
      4000   4              813.74666     -103.79067      3.2607353     -100.52993      813.74666      3299.7476      569.29187    
      5000   5              953.34121     -104.26303      3.8200997     -100.44293      953.34121     -5628.5444      570.23706    
      6000   6              1007.134      -104.63293      4.0356507     -100.59727      1007.134      -3926.346       568.28087    
      7000   7              984.15539     -104.43808      3.9435741     -100.49451      984.15539      7633.3812      559.94203    
      8000   8              941.54187     -104.25441      3.772819      -100.48159      941.54187     -5965.0787      570.40592    
      9000   9              862.75699     -104.0185       3.4571229     -100.56137      862.75699      8320.0725      562.66566    
     10000   10             1082.4617     -104.54757      4.3374938     -100.21008      1082.4617      2910.6011      562.99589    
Loop time of 0.861547 on 2 procs for 10000 steps with 32 atoms

Performance: 1002.847 ns/day, 0.024 hours/ns, 11607.023 timesteps/s
97.4% CPU use with 2 MPI tasks x 1 OpenMP threads

MPI task timing breakdown:
Section |  min time  |  avg time  |  max time  |%varavg| %total
---------------------------------------------------------------
Pair    | 0.51527    | 0.55404    | 0.59282    |   5.2 | 64.31
Neigh   | 0.0033744  | 0.0039065  | 0.0044386  |   0.9 |  0.45
Comm    | 0.11403    | 0.1517     | 0.18936    |   9.7 | 17.61
Output  | 0.0001517  | 0.00018769 | 0.00022368 |   0.0 |  0.02
Modify  | 0.14048    | 0.14224    | 0.144      |   0.5 | 16.51
Other   |            | 0.009474   |            |       |  1.10

Nlocal:             16 ave          19 max          13 min
Histogram: 1 0 0 0 0 0 0 0 0 1
Nghost:          850.5 ave         860 max         841 min
Histogram: 1 0 0 0 0 0 0 0 0 1
Neighs:           1160 ave        1592 max         728 min
Histogram: 1 0 0 0 0 0 0 0 0 1

Total # of neighbors = 2320
Ave neighs/atom = 72.5
Neighbor list builds = 81
Dangerous builds = 0
unfix 2
# unfix 3

# NPT Production run at temperature
reset_timestep 0
variable prrunl equal 1E4
fix 3 all ave/time 1 10000 10000 c_mytemp c_mypress v_vmyvol v_avgEtotal
fix 4 all ave/time 1 10 10 c_mytemp c_mypress v_vmyvol v_avgEtotal file ${rampup_pravgfile}
fix 4 all ave/time 1 10 10 c_mytemp c_mypress v_vmyvol v_avgEtotal file rampup_pravg_975.txt
# print to file average of every 10 steps. Every 10 femptoseconds

thermo 1000 # Print every "thermo" timesteps
run ${prrunl}
run 10000
Per MPI rank memory allocation (min/avg/max) = 3.605 | 3.605 | 3.605 Mbytes
   Step          Time           Temp          PotEng         KinEng         TotEng        c_mytemp      c_mypress        Volume    
         0   0              1082.4617     -104.54757      4.3374938     -100.21008      1082.4617      2910.6011      562.99589    
      1000   1              937.53022     -104.24439      3.7567441     -100.48764      937.53022     -258.6432       568.09005    
      2000   2              999.68396     -104.26518      4.0057981     -100.25939      999.68396     -691.12346      567.23435    
      3000   3              892.27107     -104.06605      3.5753877     -100.49066      892.27107      1416.3692      569.64766    
      4000   4              951.17609     -104.23807      3.8114239     -100.42665      951.17609      5305.2014      566.64677    
      5000   5              1037.7278     -104.6195       4.158242      -100.46126      1037.7278     -574.06291      565.96143    
      6000   6              1015.8441     -104.47839      4.0705526     -100.40784      1015.8441     -584.42029      565.9808     
      7000   7              992.81059     -104.43229      3.9782561     -100.45403      992.81059     -512.38253      566.65845    
      8000   8              823.36884     -103.80661      3.2992921     -100.50732      823.36884      1752.3995      568.74119    
      9000   9              901.90697     -104.01906      3.6139994     -100.40506      901.90697      10380.676      562.22568    
     10000   10             988.93441     -104.48738      3.962724      -100.52466      988.93441     -6393.3419      573.05872    
Loop time of 0.896354 on 2 procs for 10000 steps with 32 atoms

Performance: 963.905 ns/day, 0.025 hours/ns, 11156.302 timesteps/s
97.5% CPU use with 2 MPI tasks x 1 OpenMP threads

MPI task timing breakdown:
Section |  min time  |  avg time  |  max time  |%varavg| %total
---------------------------------------------------------------
Pair    | 0.49687    | 0.53548    | 0.57409    |   5.3 | 59.74
Neigh   | 0.0036746  | 0.0042124  | 0.0047503  |   0.8 |  0.47
Comm    | 0.11006    | 0.1474     | 0.18475    |   9.7 | 16.44
Output  | 0.00014487 | 0.00017675 | 0.00020863 |   0.0 |  0.02
Modify  | 0.19811    | 0.19983    | 0.20154    |   0.4 | 22.29
Other   |            | 0.009253   |            |       |  1.03

Nlocal:             16 ave          17 max          15 min
Histogram: 1 0 0 0 0 0 0 0 0 1
Nghost:          843.5 ave         856 max         831 min
Histogram: 1 0 0 0 0 0 0 0 0 1
Neighs:           1150 ave        1432 max         868 min
Histogram: 1 0 0 0 0 0 0 0 0 1

Total # of neighbors = 2300
Ave neighs/atom = 71.875
Neighbor list builds = 89
Dangerous builds = 0
variable final_temp_avg equal f_3[1]
variable final_press_avg equal f_3[2]
variable final_vol_avg equal f_3[3]
variable final_etot_avg equal f_3[4]

print "${final_temp_avg} ${final_press_avg} ${final_vol_avg} ${final_etot_avg}" append ${prallfile}
print "${final_temp_avg} ${final_press_avg} ${final_vol_avg} ${final_etot_avg}" append prall.txt
974.284980964289 -156.430916617074 567.39185466635 -3.13888620585289

unfix 3
unfix 4
#unfix 1

next i
jump Ramp.txt.in LoopStart
variable i loop ${LoopSize}
variable i loop 21
print " "
 
print "*******LOOP # $i*********"
*******LOOP # 5*********
print " "
 
variable tempvar equal ${TempStep}*${i}+${TempInitial}-${TempStep}
variable tempvar equal 25*${i}+${TempInitial}-${TempStep}
variable tempvar equal 25*5+${TempInitial}-${TempStep}
variable tempvar equal 25*5+900-${TempStep}
variable tempvar equal 25*5+900-25
variable rampup_eqavgfile string rampup_eqavg_${tempvar}.txt
variable rampup_eqavgfile string rampup_eqavg_1000.txt
variable rampup_pravgfile string rampup_pravg_${tempvar}.txt
variable rampup_pravgfile string rampup_pravg_1000.txt
# variable rampup_eqfile string rampup_eq_${tempvar}.txt

# NPT Equilibration run at temperature
reset_timestep 0
variable eqrunl equal 1E4 # Keep > 10000 to avoid crashing fix lines below for time avg output
fix 1 all npt temp ${tempvar} ${tempvar} 0.1 iso 0 0 1 drag 1 # npt ensemble molecular dynamics.
fix 1 all npt temp 1000 ${tempvar} 0.1 iso 0 0 1 drag 1 
fix 1 all npt temp 1000 1000 0.1 iso 0 0 1 drag 1 

fix 2 all ave/time 1 10 10 c_mytemp c_mypress v_vmyvol v_avgEtotal file ${rampup_eqavgfile}
fix 2 all ave/time 1 10 10 c_mytemp c_mypress v_vmyvol v_avgEtotal file rampup_eqavg_1000.txt
# print to file average of every 10 steps. Every 10 femptoseconds


# fix 3 all ave/time 1 10000 10000 c_mytemp c_mypress v_vmyvol v_avgEtotal file ${rampup_eqfile}
thermo 1000 # Print every "thermo" timesteps
run ${eqrunl}
run 10000
Per MPI rank memory allocation (min/avg/max) = 3.605 | 3.605 | 3.605 Mbytes
   Step          Time           Temp          PotEng         KinEng         TotEng        c_mytemp      c_mypress        Volume    
         0   0              988.93441     -104.48738      3.962724      -100.52466      988.93441     -6393.3419      573.05872    
      1000   1              1023.5417     -104.40813      4.1013977     -100.30673      1023.5417     -2511.4876      568.51306    
      2000   2              866.96655     -103.74056      3.4739909     -100.26657      866.96655      3170.5208      570.773      
      3000   3              1199.217      -104.79659      4.8053397     -99.99125       1199.217      -6206.3161      570.42276    
      4000   4              897.75552     -103.69026      3.5973643     -100.0929       897.75552     -2852.5413      571.30161    
      5000   5              1126.6456     -104.7268       4.5145417     -100.21226      1126.6456     -9662.2378      572.11189    
      6000   6              844.57855     -103.66732      3.3842807     -100.28304      844.57855      12707.814      561.33873    
      7000   7              1079.9137     -104.30732      4.3272837     -99.980039      1079.9137     -1325.3671      569.19437    
      8000   8              1106.2243     -104.33544      4.4327122     -99.902727      1106.2243     -5328.1169      571.4376     
      9000   9              1155.5233     -104.74846      4.6302565     -100.1182       1155.5233      903.86595      564.65622    
     10000   10             1038.8199     -104.29467      4.1626185     -100.13205      1038.8199     -5689.8181      572.02468    
Loop time of 0.816835 on 2 procs for 10000 steps with 32 atoms

Performance: 1057.741 ns/day, 0.023 hours/ns, 12242.371 timesteps/s
97.6% CPU use with 2 MPI tasks x 1 OpenMP threads

MPI task timing breakdown:
Section |  min time  |  avg time  |  max time  |%varavg| %total
---------------------------------------------------------------
Pair    | 0.47983    | 0.51968    | 0.55953    |   5.5 | 63.62
Neigh   | 0.0046345  | 0.0052891  | 0.0059437  |   0.9 |  0.65
Comm    | 0.10907    | 0.148      | 0.18694    |  10.1 | 18.12
Output  | 0.00014815 | 0.00017857 | 0.000209   |   0.0 |  0.02
Modify  | 0.13327    | 0.1347     | 0.13614    |   0.4 | 16.49
Other   |            | 0.008981   |            |       |  1.10

Nlocal:             16 ave          16 max          16 min
Histogram: 2 0 0 0 0 0 0 0 0 0
Nghost:            848 ave         878 max         818 min
Histogram: 1 0 0 0 0 0 0 0 0 1
Neighs:         1159.5 ave        1361 max         958 min
Histogram: 1 0 0 0 0 0 0 0 0 1

Total # of neighbors = 2319
Ave neighs/atom = 72.46875
Neighbor list builds = 116
Dangerous builds = 0
unfix 2
# unfix 3

# NPT Production run at temperature
reset_timestep 0
variable prrunl equal 1E4
fix 3 all ave/time 1 10000 10000 c_mytemp c_mypress v_vmyvol v_avgEtotal
fix 4 all ave/time 1 10 10 c_mytemp c_mypress v_vmyvol v_avgEtotal file ${rampup_pravgfile}
fix 4 all ave/time 1 10 10 c_mytemp c_mypress v_vmyvol v_avgEtotal file rampup_pravg_1000.txt
# print to file average of every 10 steps. Every 10 femptoseconds

thermo 1000 # Print every "thermo" timesteps
run ${prrunl}
run 10000
Per MPI rank memory allocation (min/avg/max) = 3.605 | 3.605 | 3.605 Mbytes
   Step          Time           Temp          PotEng         KinEng         TotEng        c_mytemp      c_mypress        Volume    
         0   0              1038.8199     -104.29467      4.1626185     -100.13205      1038.8199     -5689.8181      572.02468    
      1000   1              1059.2531     -104.2702       4.2444957     -100.02571      1059.2531     -760.8705       566.54486    
      2000   2              887.97273     -103.71463      3.558164      -100.15647      887.97273     -8332.4391      578.73448    
      3000   3              870.28568     -103.63566      3.4872908     -100.14836      870.28568      11350.017      565.42438    
      4000   4              1110.4601     -104.59142      4.4496852     -100.14174      1110.4601     -5322.6214      570.60724    
      5000   5              1179.5524     -104.86456      4.7265424     -100.13802      1179.5524     -4113.2438      569.9753     
      6000   6              936.48656     -104.08746      3.752562      -100.3349       936.48656     -4083.4091      569.44983    
      7000   7              973.2937      -103.973        3.9000506     -100.07295      973.2937      -3154.0991      569.84138    
      8000   8              1134.9587     -104.42328      4.5478526     -99.87543       1134.9587     -8266.9817      571.46637    
      9000   9              1084.9511     -104.60377      4.3474691     -100.2563       1084.9511     -1073.3088      564.61228    
     10000   10             1132.2099     -104.66236      4.536838      -100.12552      1132.2099     -10805.179      573.1756     
Loop time of 0.89118 on 2 procs for 10000 steps with 32 atoms

Performance: 969.501 ns/day, 0.025 hours/ns, 11221.081 timesteps/s
97.9% CPU use with 2 MPI tasks x 1 OpenMP threads

MPI task timing breakdown:
Section |  min time  |  avg time  |  max time  |%varavg| %total
---------------------------------------------------------------
Pair    | 0.49215    | 0.52957    | 0.56699    |   5.1 | 59.42
Neigh   | 0.0039941  | 0.004634   | 0.0052738  |   0.9 |  0.52
Comm    | 0.11161    | 0.14818    | 0.18475    |   9.5 | 16.63
Output  | 0.00021725 | 0.00049918 | 0.00078111 |   0.0 |  0.06
Modify  | 0.1979     | 0.19902    | 0.20014    |   0.3 | 22.33
Other   |            | 0.009278   |            |       |  1.04

Nlocal:             16 ave          16 max          16 min
Histogram: 2 0 0 0 0 0 0 0 0 0
Nghost:          840.5 ave         848 max         833 min
Histogram: 1 0 0 0 0 0 0 0 0 1
Neighs:           1160 ave        1380 max         940 min
Histogram: 1 0 0 0 0 0 0 0 0 1

Total # of neighbors = 2320
Ave neighs/atom = 72.5
Neighbor list builds = 101
Dangerous builds = 0
variable final_temp_avg equal f_3[1]
variable final_press_avg equal f_3[2]
variable final_vol_avg equal f_3[3]
variable final_etot_avg equal f_3[4]

print "${final_temp_avg} ${final_press_avg} ${final_vol_avg} ${final_etot_avg}" append ${prallfile}
print "${final_temp_avg} ${final_press_avg} ${final_vol_avg} ${final_etot_avg}" append prall.txt
998.179827178881 -196.071730932844 568.888859904933 -3.13015108751021

unfix 3
unfix 4
#unfix 1

next i
jump Ramp.txt.in LoopStart
variable i loop ${LoopSize}
variable i loop 21
print " "
 
print "*******LOOP # $i*********"
*******LOOP # 6*********
print " "
 
variable tempvar equal ${TempStep}*${i}+${TempInitial}-${TempStep}
variable tempvar equal 25*${i}+${TempInitial}-${TempStep}
variable tempvar equal 25*6+${TempInitial}-${TempStep}
variable tempvar equal 25*6+900-${TempStep}
variable tempvar equal 25*6+900-25
variable rampup_eqavgfile string rampup_eqavg_${tempvar}.txt
variable rampup_eqavgfile string rampup_eqavg_1025.txt
variable rampup_pravgfile string rampup_pravg_${tempvar}.txt
variable rampup_pravgfile string rampup_pravg_1025.txt
# variable rampup_eqfile string rampup_eq_${tempvar}.txt

# NPT Equilibration run at temperature
reset_timestep 0
variable eqrunl equal 1E4 # Keep > 10000 to avoid crashing fix lines below for time avg output
fix 1 all npt temp ${tempvar} ${tempvar} 0.1 iso 0 0 1 drag 1 # npt ensemble molecular dynamics.
fix 1 all npt temp 1025 ${tempvar} 0.1 iso 0 0 1 drag 1 
fix 1 all npt temp 1025 1025 0.1 iso 0 0 1 drag 1 

fix 2 all ave/time 1 10 10 c_mytemp c_mypress v_vmyvol v_avgEtotal file ${rampup_eqavgfile}
fix 2 all ave/time 1 10 10 c_mytemp c_mypress v_vmyvol v_avgEtotal file rampup_eqavg_1025.txt
# print to file average of every 10 steps. Every 10 femptoseconds


# fix 3 all ave/time 1 10000 10000 c_mytemp c_mypress v_vmyvol v_avgEtotal file ${rampup_eqfile}
thermo 1000 # Print every "thermo" timesteps
run ${eqrunl}
run 10000
Per MPI rank memory allocation (min/avg/max) = 3.605 | 3.605 | 3.605 Mbytes
   Step          Time           Temp          PotEng         KinEng         TotEng        c_mytemp      c_mypress        Volume    
         0   0              1132.2099     -104.66236      4.536838      -100.12552      1132.2099     -10805.179      573.1756     
      1000   1              858.55099     -103.50622      3.4402692     -100.06595      858.55099      2298.9159      570.189      
      2000   2              1152.434      -104.55587      4.6178772     -99.937995      1152.434      -9005.3375      573.55953    
      3000   3              1110.8344     -104.24623      4.4511851     -99.795041      1110.8344     -7847.1572      574.37497    
      4000   4              953.83096     -103.77457      3.8220622     -99.952509      953.83096     -1864.1055      572.27846    
      5000   5              842.17936     -103.40404      3.374667      -100.02937      842.17936      4356.0914      569.30733    
      6000   6              1067.5118     -104.27775      4.2775886     -100.00016      1067.5118     -3738.3512      571.93888    
      7000   7              1027.9859     -103.89092      4.1192058     -99.771709      1027.9859     -2954.4117      573.81592    
      8000   8              1008.322      -104.15769      4.0404112     -100.11728      1008.322       5548.5116      564.54908    
      9000   9              1117.7928     -104.41195      4.4790676     -99.932883      1117.7928     -2597.9788      571.61449    
     10000   10             865.21116     -103.17564      3.4669569     -99.708681      865.21116      5976.2161      571.40727    
Loop time of 0.777099 on 2 procs for 10000 steps with 32 atoms

Performance: 1111.828 ns/day, 0.022 hours/ns, 12868.375 timesteps/s
98.0% CPU use with 2 MPI tasks x 1 OpenMP threads

MPI task timing breakdown:
Section |  min time  |  avg time  |  max time  |%varavg| %total
---------------------------------------------------------------
Pair    | 0.46284    | 0.498      | 0.53315    |   5.0 | 64.08
Neigh   | 0.0042011  | 0.004809   | 0.0054168  |   0.9 |  0.62
Comm    | 0.10288    | 0.13715    | 0.17143    |   9.3 | 17.65
Output  | 0.00013555 | 0.00016553 | 0.00019551 |   0.0 |  0.02
Modify  | 0.12664    | 0.12812    | 0.1296     |   0.4 | 16.49
Other   |            | 0.008854   |            |       |  1.14

Nlocal:             16 ave          20 max          12 min
Histogram: 1 0 0 0 0 0 0 0 0 1
Nghost:          828.5 ave         832 max         825 min
Histogram: 1 0 0 0 0 0 0 0 0 1
Neighs:           1161 ave        1623 max         699 min
Histogram: 1 0 0 0 0 0 0 0 0 1

Total # of neighbors = 2322
Ave neighs/atom = 72.5625
Neighbor list builds = 111
Dangerous builds = 0
unfix 2
# unfix 3

# NPT Production run at temperature
reset_timestep 0
variable prrunl equal 1E4
fix 3 all ave/time 1 10000 10000 c_mytemp c_mypress v_vmyvol v_avgEtotal
fix 4 all ave/time 1 10 10 c_mytemp c_mypress v_vmyvol v_avgEtotal file ${rampup_pravgfile}
fix 4 all ave/time 1 10 10 c_mytemp c_mypress v_vmyvol v_avgEtotal file rampup_pravg_1025.txt
# print to file average of every 10 steps. Every 10 femptoseconds

thermo 1000 # Print every "thermo" timesteps
run ${prrunl}
run 10000
Per MPI rank memory allocation (min/avg/max) = 3.605 | 3.605 | 3.605 Mbytes
   Step          Time           Temp          PotEng         KinEng         TotEng        c_mytemp      c_mypress        Volume    
         0   0              865.21116     -103.17564      3.4669569     -99.708681      865.21116      5976.2161      571.40727    
      1000   1              1095.7788     -104.28524      4.3908565     -99.894387      1095.7788      4541.2438      567.90588    
      2000   2              1181.759      -104.36907      4.7353846     -99.633685      1181.759      -7724.3967      572.28549    
      3000   3              860.28481     -103.51172      3.4472167     -100.0645       860.28481      7510.9211      567.39893    
      4000   4              1001.6967     -104.00051      4.0138631     -99.986646      1001.6967     -1887.4328      572.67582    
      5000   5              904.91452     -103.67083      3.6260509     -100.04478      904.91452      1143.7253      569.50565    
      6000   6              1117.9164     -104.19657      4.4795631     -99.717002      1117.9164      8147.2741      564.95713    
      7000   7              925.66332     -103.77989      3.7091926     -100.07069      925.66332      1051.4119      568.60879    
      8000   8              1414.8733     -105.33064      5.6694887     -99.661154      1414.8733     -12271.916      570.91075    
      9000   9              885.77369     -103.47896      3.5493523     -99.929605      885.77369      4486.1868      570.71942    
     10000   10             1132.2002     -104.27496      4.5367991     -99.738164      1132.2002     -6598.0122      577.12032    
Loop time of 0.872527 on 2 procs for 10000 steps with 32 atoms

Performance: 990.227 ns/day, 0.024 hours/ns, 11460.964 timesteps/s
97.5% CPU use with 2 MPI tasks x 1 OpenMP threads

MPI task timing breakdown:
Section |  min time  |  avg time  |  max time  |%varavg| %total
---------------------------------------------------------------
Pair    | 0.48473    | 0.52134    | 0.55795    |   5.1 | 59.75
Neigh   | 0.0038163  | 0.0043708  | 0.0049252  |   0.8 |  0.50
Comm    | 0.1085     | 0.144      | 0.1795     |   9.4 | 16.50
Output  | 0.00015348 | 0.00018657 | 0.00021966 |   0.0 |  0.02
Modify  | 0.1921     | 0.19361    | 0.19511    |   0.3 | 22.19
Other   |            | 0.009026   |            |       |  1.03

Nlocal:             16 ave          17 max          15 min
Histogram: 1 0 0 0 0 0 0 0 0 1
Nghost:            824 ave         829 max         819 min
Histogram: 1 0 0 0 0 0 0 0 0 1
Neighs:           1155 ave        1325 max         985 min
Histogram: 1 0 0 0 0 0 0 0 0 1

Total # of neighbors = 2310
Ave neighs/atom = 72.1875
Neighbor list builds = 98
Dangerous builds = 0
variable final_temp_avg equal f_3[1]
variable final_press_avg equal f_3[2]
variable final_vol_avg equal f_3[3]
variable final_etot_avg equal f_3[4]

print "${final_temp_avg} ${final_press_avg} ${final_vol_avg} ${final_etot_avg}" append ${prallfile}
print "${final_temp_avg} ${final_press_avg} ${final_vol_avg} ${final_etot_avg}" append prall.txt
1023.89291906336 -236.118243563106 570.656795799764 -3.12092210145738

unfix 3
unfix 4
#unfix 1

next i
jump Ramp.txt.in LoopStart
variable i loop ${LoopSize}
variable i loop 21
print " "
 
print "*******LOOP # $i*********"
*******LOOP # 7*********
print " "
 
variable tempvar equal ${TempStep}*${i}+${TempInitial}-${TempStep}
variable tempvar equal 25*${i}+${TempInitial}-${TempStep}
variable tempvar equal 25*7+${TempInitial}-${TempStep}
variable tempvar equal 25*7+900-${TempStep}
variable tempvar equal 25*7+900-25
variable rampup_eqavgfile string rampup_eqavg_${tempvar}.txt
variable rampup_eqavgfile string rampup_eqavg_1050.txt
variable rampup_pravgfile string rampup_pravg_${tempvar}.txt
variable rampup_pravgfile string rampup_pravg_1050.txt
# variable rampup_eqfile string rampup_eq_${tempvar}.txt

# NPT Equilibration run at temperature
reset_timestep 0
variable eqrunl equal 1E4 # Keep > 10000 to avoid crashing fix lines below for time avg output
fix 1 all npt temp ${tempvar} ${tempvar} 0.1 iso 0 0 1 drag 1 # npt ensemble molecular dynamics.
fix 1 all npt temp 1050 ${tempvar} 0.1 iso 0 0 1 drag 1 
fix 1 all npt temp 1050 1050 0.1 iso 0 0 1 drag 1 

fix 2 all ave/time 1 10 10 c_mytemp c_mypress v_vmyvol v_avgEtotal file ${rampup_eqavgfile}
fix 2 all ave/time 1 10 10 c_mytemp c_mypress v_vmyvol v_avgEtotal file rampup_eqavg_1050.txt
# print to file average of every 10 steps. Every 10 femptoseconds


# fix 3 all ave/time 1 10000 10000 c_mytemp c_mypress v_vmyvol v_avgEtotal file ${rampup_eqfile}
thermo 1000 # Print every "thermo" timesteps
run ${eqrunl}
run 10000
Per MPI rank memory allocation (min/avg/max) = 3.605 | 3.605 | 3.605 Mbytes
   Step          Time           Temp          PotEng         KinEng         TotEng        c_mytemp      c_mypress        Volume    
         0   0              1132.2002     -104.27496      4.5367991     -99.738164      1132.2002     -6598.0122      577.12032    
      1000   1              1024.6157     -103.70686      4.1057013     -99.60116       1024.6157      2729.8768      571.2126     
      2000   2              1095.7594     -103.97183      4.3907785     -99.581054      1095.7594     -5195.2079      574.15628    
      3000   3              1070.5758     -103.82272      4.2898662     -99.532852      1070.5758      1563.3651      571.07257    
      4000   4              1222.0947     -104.44503      4.8970125     -99.548018      1222.0947     -11469.776      574.89091    
      5000   5              1206.1126     -104.28142      4.8329711     -99.448446      1206.1126     -10636.629      577.05479    
      6000   6              1243.1246     -104.38584      4.9812804     -99.404562      1243.1246     -263.13926      569.88339    
      7000   7              908.1957      -103.55907      3.6391987     -99.919875      908.1957       3573.2889      568.49011    
      8000   8              1108.3003     -104.39906      4.441031      -99.958029      1108.3003     -1473.9074      566.96298    
      9000   9              1039.4293     -103.60051      4.1650601     -99.435446      1039.4293      7105.4534      567.9219     
     10000   10             1141.9694     -104.08733      4.5759452     -99.511384      1141.9694     -6120.5729      574.1511     
Loop time of 0.846166 on 2 procs for 10000 steps with 32 atoms

Performance: 1021.076 ns/day, 0.024 hours/ns, 11818.005 timesteps/s
97.2% CPU use with 2 MPI tasks x 1 OpenMP threads

MPI task timing breakdown:
Section |  min time  |  avg time  |  max time  |%varavg| %total
---------------------------------------------------------------
Pair    | 0.49696    | 0.53802    | 0.57908    |   5.6 | 63.58
Neigh   | 0.0041029  | 0.0047511  | 0.0053992  |   0.9 |  0.56
Comm    | 0.11437    | 0.1546     | 0.19483    |  10.2 | 18.27
Output  | 0.00021256 | 0.00053983 | 0.0008671  |   0.0 |  0.06
Modify  | 0.13679    | 0.13873    | 0.14067    |   0.5 | 16.39
Other   |            | 0.009527   |            |       |  1.13

Nlocal:             16 ave          17 max          15 min
Histogram: 1 0 0 0 0 0 0 0 0 1
Nghost:          880.5 ave         886 max         875 min
Histogram: 1 0 0 0 0 0 0 0 0 1
Neighs:         1145.5 ave        1425 max         866 min
Histogram: 1 0 0 0 0 0 0 0 0 1

Total # of neighbors = 2291
Ave neighs/atom = 71.59375
Neighbor list builds = 101
Dangerous builds = 0
unfix 2
# unfix 3

# NPT Production run at temperature
reset_timestep 0
variable prrunl equal 1E4
fix 3 all ave/time 1 10000 10000 c_mytemp c_mypress v_vmyvol v_avgEtotal
fix 4 all ave/time 1 10 10 c_mytemp c_mypress v_vmyvol v_avgEtotal file ${rampup_pravgfile}
fix 4 all ave/time 1 10 10 c_mytemp c_mypress v_vmyvol v_avgEtotal file rampup_pravg_1050.txt
# print to file average of every 10 steps. Every 10 femptoseconds

thermo 1000 # Print every "thermo" timesteps
run ${prrunl}
run 10000
Per MPI rank memory allocation (min/avg/max) = 3.605 | 3.605 | 3.605 Mbytes
   Step          Time           Temp          PotEng         KinEng         TotEng        c_mytemp      c_mypress        Volume    
         0   0              1141.9694     -104.08733      4.5759452     -99.511384      1141.9694     -6120.5729      574.1511     
      1000   1              1107.8292     -104.10792      4.4391431     -99.668776      1107.8292     -7117.7529      573.04446    
      2000   2              927.33043     -103.60741      3.7158728     -99.891537      927.33043      6195.3406      568.89126    
      3000   3              914.3989      -103.26044      3.6640554     -99.59638       914.3989       3194.2099      573.26574    
      4000   4              829.32109     -102.87849      3.3231431     -99.555344      829.32109      21034.138      564.4597     
      5000   5              1105.4052     -103.89794      4.4294298     -99.468507      1105.4052     -3895.1066      573.1104     
      6000   6              967.00194     -103.64613      3.8748391     -99.77129       967.00194      4045.0946      569.2838     
      7000   7              979.99422     -103.5343       3.9269001     -99.607399      979.99422     -4272.1464      577.58242    
      8000   8              1007.9097     -103.77152      4.0387594     -99.732764      1007.9097      5584.3455      567.60995    
      9000   9              1060.6623     -103.84215      4.2501423     -99.592012      1060.6623     -6946.6896      576.88605    
     10000   10             1042.3413     -103.94571      4.1767287     -99.768978      1042.3413      946.72792      568.54362    
Loop time of 0.904601 on 2 procs for 10000 steps with 32 atoms

Performance: 955.117 ns/day, 0.025 hours/ns, 11054.598 timesteps/s
97.5% CPU use with 2 MPI tasks x 1 OpenMP threads

MPI task timing breakdown:
Section |  min time  |  avg time  |  max time  |%varavg| %total
---------------------------------------------------------------
Pair    | 0.49859    | 0.53945    | 0.58031    |   5.6 | 59.63
Neigh   | 0.0049045  | 0.0056766  | 0.0064487  |   1.0 |  0.63
Comm    | 0.11038    | 0.15046    | 0.19054    |  10.3 | 16.63
Output  | 0.0001433  | 0.00017803 | 0.00021276 |   0.0 |  0.02
Modify  | 0.19729    | 0.19959    | 0.20189    |   0.5 | 22.06
Other   |            | 0.009242   |            |       |  1.02

Nlocal:             16 ave          18 max          14 min
Histogram: 1 0 0 0 0 0 0 0 0 1
Nghost:          847.5 ave         851 max         844 min
Histogram: 1 0 0 0 0 0 0 0 0 1
Neighs:         1163.5 ave        1218 max        1109 min
Histogram: 1 0 0 0 0 0 0 0 0 1

Total # of neighbors = 2327
Ave neighs/atom = 72.71875
Neighbor list builds = 121
Dangerous builds = 0
variable final_temp_avg equal f_3[1]
variable final_press_avg equal f_3[2]
variable final_vol_avg equal f_3[3]
variable final_etot_avg equal f_3[4]

print "${final_temp_avg} ${final_press_avg} ${final_vol_avg} ${final_etot_avg}" append ${prallfile}
print "${final_temp_avg} ${final_press_avg} ${final_vol_avg} ${final_etot_avg}" append prall.txt
1048.67878487441 -209.611969385538 571.353234546783 -3.11337774372673

unfix 3
unfix 4
#unfix 1

next i
jump Ramp.txt.in LoopStart
variable i loop ${LoopSize}
variable i loop 21
print " "
 
print "*******LOOP # $i*********"
*******LOOP # 8*********
print " "
 
variable tempvar equal ${TempStep}*${i}+${TempInitial}-${TempStep}
variable tempvar equal 25*${i}+${TempInitial}-${TempStep}
variable tempvar equal 25*8+${TempInitial}-${TempStep}
variable tempvar equal 25*8+900-${TempStep}
variable tempvar equal 25*8+900-25
variable rampup_eqavgfile string rampup_eqavg_${tempvar}.txt
variable rampup_eqavgfile string rampup_eqavg_1075.txt
variable rampup_pravgfile string rampup_pravg_${tempvar}.txt
variable rampup_pravgfile string rampup_pravg_1075.txt
# variable rampup_eqfile string rampup_eq_${tempvar}.txt

# NPT Equilibration run at temperature
reset_timestep 0
variable eqrunl equal 1E4 # Keep > 10000 to avoid crashing fix lines below for time avg output
fix 1 all npt temp ${tempvar} ${tempvar} 0.1 iso 0 0 1 drag 1 # npt ensemble molecular dynamics.
fix 1 all npt temp 1075 ${tempvar} 0.1 iso 0 0 1 drag 1 
fix 1 all npt temp 1075 1075 0.1 iso 0 0 1 drag 1 

fix 2 all ave/time 1 10 10 c_mytemp c_mypress v_vmyvol v_avgEtotal file ${rampup_eqavgfile}
fix 2 all ave/time 1 10 10 c_mytemp c_mypress v_vmyvol v_avgEtotal file rampup_eqavg_1075.txt
# print to file average of every 10 steps. Every 10 femptoseconds


# fix 3 all ave/time 1 10000 10000 c_mytemp c_mypress v_vmyvol v_avgEtotal file ${rampup_eqfile}
thermo 1000 # Print every "thermo" timesteps
run ${eqrunl}
run 10000
Per MPI rank memory allocation (min/avg/max) = 3.605 | 3.605 | 3.605 Mbytes
   Step          Time           Temp          PotEng         KinEng         TotEng        c_mytemp      c_mypress        Volume    
         0   0              1042.3413     -103.94571      4.1767287     -99.768978      1042.3413      946.72792      568.54362    
      1000   1              1094.4039     -103.60262      4.3853469     -99.217268      1094.4039      4249.7788      568.88011    
      2000   2              1357.5992     -104.7402       5.4399877     -99.300209      1357.5992     -3913.273       569.84469    
      3000   3              1248.6366     -104.58629      5.0033675     -99.582923      1248.6366     -886.10989      566.76659    
      4000   4              1014.6833     -103.43629      4.0659013     -99.370389      1014.6833     -1751.199       575.03119    
      5000   5              945.72473     -103.1839       3.78958       -99.394321      945.72473     -1464.0827      575.73607    
      6000   6              1010.9399     -103.40689      4.0509014     -99.355984      1010.9399      2185.4036      571.4128     
      7000   7              1208.5938     -104.1606       4.8429134     -99.317682      1208.5938      4695.09        568.86452    
      8000   8              899.44895     -102.988        3.60415       -99.383849      899.44895      3289.9204      575.86258    
      9000   9              1156.7329     -103.65283      4.6351034     -99.01773       1156.7329     -3739.335       573.66363    
     10000   10             931.48118     -102.87823      3.7325052     -99.145726      931.48118      4377.1956      574.9663     
Loop time of 0.812273 on 2 procs for 10000 steps with 32 atoms

Performance: 1063.682 ns/day, 0.023 hours/ns, 12311.136 timesteps/s
97.4% CPU use with 2 MPI tasks x 1 OpenMP threads

MPI task timing breakdown:
Section |  min time  |  avg time  |  max time  |%varavg| %total
---------------------------------------------------------------
Pair    | 0.47701    | 0.51736    | 0.55771    |   5.6 | 63.69
Neigh   | 0.0051495  | 0.0058891  | 0.0066286  |   1.0 |  0.73
Comm    | 0.10677    | 0.14629    | 0.18582    |  10.3 | 18.01
Output  | 0.00013533 | 0.00016956 | 0.00020379 |   0.0 |  0.02
Modify  | 0.13201    | 0.13367    | 0.13532    |   0.5 | 16.46
Other   |            | 0.008895   |            |       |  1.10

Nlocal:             16 ave          20 max          12 min
Histogram: 1 0 0 0 0 0 0 0 0 1
Nghost:            842 ave         847 max         837 min
Histogram: 1 0 0 0 0 0 0 0 0 1
Neighs:         1164.5 ave        1214 max        1115 min
Histogram: 1 0 0 0 0 0 0 0 0 1

Total # of neighbors = 2329
Ave neighs/atom = 72.78125
Neighbor list builds = 133
Dangerous builds = 0
unfix 2
# unfix 3

# NPT Production run at temperature
reset_timestep 0
variable prrunl equal 1E4
fix 3 all ave/time 1 10000 10000 c_mytemp c_mypress v_vmyvol v_avgEtotal
fix 4 all ave/time 1 10 10 c_mytemp c_mypress v_vmyvol v_avgEtotal file ${rampup_pravgfile}
fix 4 all ave/time 1 10 10 c_mytemp c_mypress v_vmyvol v_avgEtotal file rampup_pravg_1075.txt
# print to file average of every 10 steps. Every 10 femptoseconds

thermo 1000 # Print every "thermo" timesteps
run ${prrunl}
run 10000
Per MPI rank memory allocation (min/avg/max) = 3.605 | 3.605 | 3.605 Mbytes
   Step          Time           Temp          PotEng         KinEng         TotEng        c_mytemp      c_mypress        Volume    
         0   0              931.48118     -102.87823      3.7325052     -99.145726      931.48118      4377.1956      574.9663     
      1000   1              1097.3484     -103.97057      4.3971458     -99.573428      1097.3484      1383.9083      570.60542    
      2000   2              1235.8642     -104.48895      4.9521874     -99.536763      1235.8642     -4242.441       571.9469     
      3000   3              924.10749     -103.03566      3.7029583     -99.332705      924.10749      11588.63       566.27827    
      4000   4              1248.1995     -104.35498      5.001616      -99.353361      1248.1995     -3598.7462      570.45382    
      5000   5              1119.8061     -103.84532      4.4871354     -99.358182      1119.8061     -3456.5342      573.89505    
      6000   6              1079.756      -103.46607      4.3266519     -99.13942       1079.756       2795.4481      572.84507    
      7000   7              1059.303      -103.51395      4.2446956     -99.269257      1059.303       6451.2626      569.01352    
      8000   8              1065.1523     -103.72906      4.2681339     -99.46093       1065.1523      887.05376      570.65705    
      9000   9              1049.4699     -103.47816      4.2052937     -99.272865      1049.4699     -2378.1224      573.47739    
     10000   10             1123.7013     -103.70757      4.5027436     -99.204829      1123.7013     -573.30195      571.1694     
Loop time of 0.913767 on 2 procs for 10000 steps with 32 atoms

Performance: 945.536 ns/day, 0.025 hours/ns, 10943.708 timesteps/s
97.8% CPU use with 2 MPI tasks x 1 OpenMP threads

MPI task timing breakdown:
Section |  min time  |  avg time  |  max time  |%varavg| %total
---------------------------------------------------------------
Pair    | 0.49899    | 0.54153    | 0.58408    |   5.8 | 59.26
Neigh   | 0.0049683  | 0.0057397  | 0.006511   |   1.0 |  0.63
Comm    | 0.1135     | 0.15506    | 0.19662    |  10.6 | 16.97
Output  | 0.00021494 | 0.00055734 | 0.00089974 |   0.0 |  0.06
Modify  | 0.20027    | 0.20161    | 0.20296    |   0.3 | 22.06
Other   |            | 0.009264   |            |       |  1.01

Nlocal:             16 ave          17 max          15 min
Histogram: 1 0 0 0 0 0 0 0 0 1
Nghost:          846.5 ave         850 max         843 min
Histogram: 1 0 0 0 0 0 0 0 0 1
Neighs:         1160.5 ave        1404 max         917 min
Histogram: 1 0 0 0 0 0 0 0 0 1

Total # of neighbors = 2321
Ave neighs/atom = 72.53125
Neighbor list builds = 125
Dangerous builds = 0
variable final_temp_avg equal f_3[1]
variable final_press_avg equal f_3[2]
variable final_vol_avg equal f_3[3]
variable final_etot_avg equal f_3[4]

print "${final_temp_avg} ${final_press_avg} ${final_vol_avg} ${final_etot_avg}" append ${prallfile}
print "${final_temp_avg} ${final_press_avg} ${final_vol_avg} ${final_etot_avg}" append prall.txt
1073.21441786358 -284.955691470687 572.78513109582 -3.10508168358212

unfix 3
unfix 4
#unfix 1

next i
jump Ramp.txt.in LoopStart
variable i loop ${LoopSize}
variable i loop 21
print " "
 
print "*******LOOP # $i*********"
*******LOOP # 9*********
print " "
 
variable tempvar equal ${TempStep}*${i}+${TempInitial}-${TempStep}
variable tempvar equal 25*${i}+${TempInitial}-${TempStep}
variable tempvar equal 25*9+${TempInitial}-${TempStep}
variable tempvar equal 25*9+900-${TempStep}
variable tempvar equal 25*9+900-25
variable rampup_eqavgfile string rampup_eqavg_${tempvar}.txt
variable rampup_eqavgfile string rampup_eqavg_1100.txt
variable rampup_pravgfile string rampup_pravg_${tempvar}.txt
variable rampup_pravgfile string rampup_pravg_1100.txt
# variable rampup_eqfile string rampup_eq_${tempvar}.txt

# NPT Equilibration run at temperature
reset_timestep 0
variable eqrunl equal 1E4 # Keep > 10000 to avoid crashing fix lines below for time avg output
fix 1 all npt temp ${tempvar} ${tempvar} 0.1 iso 0 0 1 drag 1 # npt ensemble molecular dynamics.
fix 1 all npt temp 1100 ${tempvar} 0.1 iso 0 0 1 drag 1 
fix 1 all npt temp 1100 1100 0.1 iso 0 0 1 drag 1 

fix 2 all ave/time 1 10 10 c_mytemp c_mypress v_vmyvol v_avgEtotal file ${rampup_eqavgfile}
fix 2 all ave/time 1 10 10 c_mytemp c_mypress v_vmyvol v_avgEtotal file rampup_eqavg_1100.txt
# print to file average of every 10 steps. Every 10 femptoseconds


# fix 3 all ave/time 1 10000 10000 c_mytemp c_mypress v_vmyvol v_avgEtotal file ${rampup_eqfile}
thermo 1000 # Print every "thermo" timesteps
run ${eqrunl}
run 10000
Per MPI rank memory allocation (min/avg/max) = 3.605 | 3.605 | 3.605 Mbytes
   Step          Time           Temp          PotEng         KinEng         TotEng        c_mytemp      c_mypress        Volume    
         0   0              1123.7013     -103.70757      4.5027436     -99.204829      1123.7013     -573.30195      571.1694     
      1000   1              1037.3195     -103.00224      4.1566062     -98.845638      1037.3195      6623.0057      571.12617    
      2000   2              1126.6438     -103.6848       4.5145342     -99.170269      1126.6438     -2959.0946      577.07161    
      3000   3              1022.1134     -103.44691      4.0956745     -99.351234      1022.1134      6369.291       567.59547    
      4000   4              1150.7736     -103.59132      4.6112242     -98.980099      1150.7736     -1784.012       576.34117    
      5000   5              1033.6076     -103.45448      4.1417325     -99.312752      1033.6076     -7567.8457      578.58319    
      6000   6              1074.8979     -103.39784      4.3071852     -99.090653      1074.8979     -3268.4473      577.69348    
      7000   7              1222.3341     -104.02362      4.8979714     -99.125652      1222.3341      447.89987      574.25546    
      8000   8              899.07228     -102.7396       3.6026406     -99.136958      899.07228      13017.481      570.4737     
      9000   9              956.55197     -103.07997      3.8329655     -99.247005      956.55197     -2291.7268      574.73398    
     10000   10             1086.5062     -103.60051      4.3537005     -99.246814      1086.5062      4031.7561      572.17348    
Loop time of 0.79195 on 2 procs for 10000 steps with 32 atoms

Performance: 1090.979 ns/day, 0.022 hours/ns, 12627.067 timesteps/s
97.4% CPU use with 2 MPI tasks x 1 OpenMP threads

MPI task timing breakdown:
Section |  min time  |  avg time  |  max time  |%varavg| %total
---------------------------------------------------------------
Pair    | 0.46364    | 0.50377    | 0.54389    |   5.7 | 63.61
Neigh   | 0.004965   | 0.0057396  | 0.0065143  |   1.0 |  0.72
Comm    | 0.10359    | 0.14291    | 0.18222    |  10.4 | 18.05
Output  | 0.00020817 | 0.0004417  | 0.00067522 |   0.0 |  0.06
Modify  | 0.12832    | 0.13046    | 0.1326     |   0.6 | 16.47
Other   |            | 0.008629   |            |       |  1.09

Nlocal:             16 ave          16 max          16 min
Histogram: 2 0 0 0 0 0 0 0 0 0
Nghost:            840 ave         844 max         836 min
Histogram: 1 0 0 0 0 0 0 0 0 1
Neighs:           1160 ave        1419 max         901 min
Histogram: 1 0 0 0 0 0 0 0 0 1

Total # of neighbors = 2320
Ave neighs/atom = 72.5
Neighbor list builds = 133
Dangerous builds = 0
unfix 2
# unfix 3

# NPT Production run at temperature
reset_timestep 0
variable prrunl equal 1E4
fix 3 all ave/time 1 10000 10000 c_mytemp c_mypress v_vmyvol v_avgEtotal
fix 4 all ave/time 1 10 10 c_mytemp c_mypress v_vmyvol v_avgEtotal file ${rampup_pravgfile}
fix 4 all ave/time 1 10 10 c_mytemp c_mypress v_vmyvol v_avgEtotal file rampup_pravg_1100.txt
# print to file average of every 10 steps. Every 10 femptoseconds

thermo 1000 # Print every "thermo" timesteps
run ${prrunl}
run 10000
Per MPI rank memory allocation (min/avg/max) = 3.605 | 3.605 | 3.605 Mbytes
   Step          Time           Temp          PotEng         KinEng         TotEng        c_mytemp      c_mypress        Volume    
         0   0              1086.5062     -103.60051      4.3537005     -99.246814      1086.5062      4031.7561      572.17348    
      1000   1              1113.3426     -103.7053       4.4612357     -99.244061      1113.3426     -2576.7304      576.02007    
      2000   2              1123.11       -103.66628      4.5003742     -99.165905      1123.11       -749.96504      575.70772    
      3000   3              1100.0601     -103.0862       4.4080116     -98.678188      1100.0601      618.11824      574.8868     
      4000   4              1059.0629     -103.03764      4.2437333     -98.793907      1059.0629     -804.11391      577.4276     
      5000   5              1173.2928     -103.80026      4.7014598     -99.098804      1173.2928     -5905.638       576.82365    
      6000   6              1069.6983     -103.37014      4.2863502     -99.083787      1069.6983     -4510.5319      576.02325    
      7000   7              1258.8474     -104.22514      5.0442828     -99.18086       1258.8474     -9053.0103      576.04209    
      8000   8              1292.7029     -104.37713      5.1799439     -99.197188      1292.7029     -9974.3801      575.4156     
      9000   9              1037.6888     -103.25139      4.158086      -99.093305      1037.6888     -1647.1028      576.75499    
     10000   10             948.31993     -102.73189      3.7999791     -98.931911      948.31993      3491.1023      577.02784    
Loop time of 0.889895 on 2 procs for 10000 steps with 32 atoms

Performance: 970.902 ns/day, 0.025 hours/ns, 11237.286 timesteps/s
97.8% CPU use with 2 MPI tasks x 1 OpenMP threads

MPI task timing breakdown:
Section |  min time  |  avg time  |  max time  |%varavg| %total
---------------------------------------------------------------
Pair    | 0.48852    | 0.5304     | 0.57227    |   5.7 | 59.60
Neigh   | 0.0051216  | 0.005961   | 0.0068003  |   1.1 |  0.67
Comm    | 0.10687    | 0.14798    | 0.18909    |  10.7 | 16.63
Output  | 0.00015112 | 0.00018794 | 0.00022475 |   0.0 |  0.02
Modify  | 0.19398    | 0.19626    | 0.19854    |   0.5 | 22.05
Other   |            | 0.009111   |            |       |  1.02

Nlocal:             16 ave          17 max          15 min
Histogram: 1 0 0 0 0 0 0 0 0 1
Nghost:          786.5 ave         796 max         777 min
Histogram: 1 0 0 0 0 0 0 0 0 1
Neighs:         1158.5 ave        1271 max        1046 min
Histogram: 1 0 0 0 0 0 0 0 0 1

Total # of neighbors = 2317
Ave neighs/atom = 72.40625
Neighbor list builds = 132
Dangerous builds = 0
variable final_temp_avg equal f_3[1]
variable final_press_avg equal f_3[2]
variable final_vol_avg equal f_3[3]
variable final_etot_avg equal f_3[4]

print "${final_temp_avg} ${final_press_avg} ${final_vol_avg} ${final_etot_avg}" append ${prallfile}
print "${final_temp_avg} ${final_press_avg} ${final_vol_avg} ${final_etot_avg}" append prall.txt
1096.81667502415 -162.620444772528 574.368975865117 -3.09554385380679

unfix 3
unfix 4
#unfix 1

next i
jump Ramp.txt.in LoopStart
variable i loop ${LoopSize}
variable i loop 21
print " "
 
print "*******LOOP # $i*********"
*******LOOP # 10*********
print " "
 
variable tempvar equal ${TempStep}*${i}+${TempInitial}-${TempStep}
variable tempvar equal 25*${i}+${TempInitial}-${TempStep}
variable tempvar equal 25*10+${TempInitial}-${TempStep}
variable tempvar equal 25*10+900-${TempStep}
variable tempvar equal 25*10+900-25
variable rampup_eqavgfile string rampup_eqavg_${tempvar}.txt
variable rampup_eqavgfile string rampup_eqavg_1125.txt
variable rampup_pravgfile string rampup_pravg_${tempvar}.txt
variable rampup_pravgfile string rampup_pravg_1125.txt
# variable rampup_eqfile string rampup_eq_${tempvar}.txt

[...]
Modify  | 0.13201    | 0.13369    | 0.13537    |   0.5 | 18.26
Other   |            | 0.008794   |            |       |  1.20

Nlocal:             16 ave          17 max          15 min
Histogram: 1 0 0 0 0 0 0 0 0 1
Nghost:          687.5 ave         690 max         685 min
Histogram: 1 0 0 0 0 0 0 0 0 1
Neighs:          970.5 ave        1031 max         910 min
Histogram: 1 0 0 0 0 0 0 0 0 1

Total # of neighbors = 1941
Ave neighs/atom = 60.65625
Neighbor list builds = 192
Dangerous builds = 0
unfix 2
# unfix 3

# NPT Production run at temperature
reset_timestep 0
variable prrunl equal 1E4
fix 3 all ave/time 1 10000 10000 c_mytemp c_mypress v_vmyvol v_avgEtotal
fix 4 all ave/time 1 10 10 c_mytemp c_mypress v_vmyvol v_avgEtotal file ${rampdown_pravgfile}
fix 4 all ave/time 1 10 10 c_mytemp c_mypress v_vmyvol v_avgEtotal file rampdown_pravg_1550.txt
# print to file average of every 10 steps. Every 10 femptoseconds

thermo 1000 # Print every "thermo" timesteps
run ${prrunl}
run 10000
Per MPI rank memory allocation (min/avg/max) = 3.707 | 3.707 | 3.707 Mbytes
   Step          Time           Temp          PotEng         KinEng         TotEng        c_mytemp      c_mypress        Volume    
         0   0              1565.737      -96.737053      6.2740093     -90.463044      1565.737      -14536.086      662.01768    
      1000   1              1616.08       -97.211865      6.475737      -90.736128      1616.08        4038.1819      630.66669    
      2000   2              1719.348      -96.8502        6.8895385     -89.960661      1719.348      -20732.758      685.43728    
      3000   3              1471.4013     -96.969413      5.8959997     -91.073413      1471.4013      11465.209      638.76197    
      4000   4              1356.9527     -95.691459      5.4373971     -90.254062      1356.9527     -1650.8165      665.33871    
      5000   5              1867.3749     -98.831664      7.4826917     -91.348973      1867.3749     -6945.0267      628.16829    
      6000   6              1586.1454     -97.29085       6.3557868     -90.935063      1586.1454     -2896.6772      644.67204    
      7000   7              1469.8778     -95.904233      5.8898952     -90.014338      1469.8778      14520.013      648.78457    
      8000   8              1523.5294     -97.119099      6.1048806     -91.014219      1523.5294      5994.9194      632.59532    
      9000   9              1453.7472     -97.076761      5.8252589     -91.251502      1453.7472     -2598.1812      644.1575     
     10000   10             1270.2297     -96.532553      5.0898925     -91.442661      1270.2297      14528.245      620.24568    
Loop time of 0.785802 on 2 procs for 10000 steps with 32 atoms

Performance: 1099.514 ns/day, 0.022 hours/ns, 12725.855 timesteps/s
96.9% CPU use with 2 MPI tasks x 1 OpenMP threads

MPI task timing breakdown:
Section |  min time  |  avg time  |  max time  |%varavg| %total
---------------------------------------------------------------
Pair    | 0.47012    | 0.47536    | 0.4806     |   0.8 | 60.49
Neigh   | 0.0068085  | 0.0069038  | 0.0069992  |   0.1 |  0.88
Comm    | 0.098763   | 0.10238    | 0.10599    |   1.1 | 13.03
Output  | 0.00021828 | 0.0005456  | 0.00087293 |   0.0 |  0.07
Modify  | 0.19059    | 0.19181    | 0.19304    |   0.3 | 24.41
Other   |            | 0.008801   |            |       |  1.12

Nlocal:             16 ave          16 max          16 min
Histogram: 2 0 0 0 0 0 0 0 0 0
Nghost:            704 ave         704 max         704 min
Histogram: 2 0 0 0 0 0 0 0 0 0
Neighs:         1032.5 ave        1033 max        1032 min
Histogram: 1 0 0 0 0 0 0 0 0 1

Total # of neighbors = 2065
Ave neighs/atom = 64.53125
Neighbor list builds = 192
Dangerous builds = 0
variable final_temp_avg equal f_3[1]
variable final_press_avg equal f_3[2]
variable final_vol_avg equal f_3[3]
variable final_etot_avg equal f_3[4]

print "${final_temp_avg} ${final_press_avg} ${final_vol_avg} ${final_etot_avg}" append ${prallfile}
print "${final_temp_avg} ${final_press_avg} ${final_vol_avg} ${final_etot_avg}" append prall.txt
1546.70679495551 -187.386854443821 643.125831354671 -2.83945582574574

unfix 3
unfix 4
#unfix 1

next i
jump Ramp.txt.in LoopStart2
variable i loop ${LoopSize}
variable i loop 21
print " "
 
print "*******LOOP2 # $i*********"
*******LOOP2 # 20*********
print " "
 
variable tempvar equal ${TempFinal}+${TempStep}-${TempStep}*${i}
variable tempvar equal 2000+${TempStep}-${TempStep}*${i}
variable tempvar equal 2000+25-${TempStep}*${i}
variable tempvar equal 2000+25-25*${i}
variable tempvar equal 2000+25-25*20
variable rampdown_eqavgfile string rampdown_eqavg_${tempvar}.txt
variable rampdown_eqavgfile string rampdown_eqavg_1525.txt
variable rampdown_pravgfile string rampdown_pravg_${tempvar}.txt
variable rampdown_pravgfile string rampdown_pravg_1525.txt
# variable rampup_eqfile string rampup_eq_${tempvar}.txt

# NPT Equilibration run at temperature
reset_timestep 0
variable eqrunl equal 1E4 # Keep > 10000 to avoid crashing fix lines below for time avg output
fix 1 all npt temp ${tempvar} ${tempvar} 0.1 iso 1 1 1 drag 1 # npt ensemble molecular dynamics.
fix 1 all npt temp 1525 ${tempvar} 0.1 iso 1 1 1 drag 1 
fix 1 all npt temp 1525 1525 0.1 iso 1 1 1 drag 1 
fix 2 all ave/time 1 10 10 c_mytemp c_mypress v_vmyvol v_avgEtotal file ${rampdown_eqavgfile}
fix 2 all ave/time 1 10 10 c_mytemp c_mypress v_vmyvol v_avgEtotal file rampdown_eqavg_1525.txt
# print to file average of every 10 steps. Every 10 femptoseconds
thermo 1000 # Print every "thermo" timesteps
run ${eqrunl}
run 10000
Per MPI rank memory allocation (min/avg/max) = 3.707 | 3.707 | 3.707 Mbytes
   Step          Time           Temp          PotEng         KinEng         TotEng        c_mytemp      c_mypress        Volume    
         0   0              1270.2297     -96.532553      5.0898925     -91.442661      1270.2297      14528.245      620.24568    
      1000   1              1572.4771     -97.170338      6.3010171     -90.869321      1572.4771     -15167.898      647.46337    
      2000   2              1564.6981     -96.051595      6.2698461     -89.781749      1564.6981     -9021.5054      661.1232     
      3000   3              1620.0869     -97.357425      6.4917926     -90.865633      1620.0869      4229.4109      629.81381    
      4000   4              1683.728      -98.029036      6.7468067     -91.282229      1683.728       13028.472      618.4056     
      5000   5              1521.7946     -97.000585      6.0979292     -90.902656      1521.7946      24721.814      625.9116     
      6000   6              1472.0296     -97.09184       5.8985176     -91.193323      1472.0296      5855.8786      638.17875    
      7000   7              1539.2369     -96.436207      6.1678214     -90.268386      1539.2369      8347.3753      638.61616    
      8000   8              1628.8304     -97.564974      6.5268284     -91.038146      1628.8304     -4316.0391      645.01952    
      9000   9              1604.6724     -98.18237       6.4300259     -91.752344      1604.6724      3465.8061      626.55677    
     10000   10             1392.9549     -96.981691      5.5816602     -91.400031      1392.9549      1964.1396      632.82685    
Loop time of 0.721393 on 2 procs for 10000 steps with 32 atoms

Performance: 1197.683 ns/day, 0.020 hours/ns, 13862.077 timesteps/s
97.0% CPU use with 2 MPI tasks x 1 OpenMP threads

MPI task timing breakdown:
Section |  min time  |  avg time  |  max time  |%varavg| %total
---------------------------------------------------------------
Pair    | 0.46787    | 0.47192    | 0.47598    |   0.6 | 65.42
Neigh   | 0.0065299  | 0.006624   | 0.0067182  |   0.1 |  0.92
Comm    | 0.098315   | 0.10077    | 0.10322    |   0.8 | 13.97
Output  | 0.00014228 | 0.00018361 | 0.00022493 |   0.0 |  0.03
Modify  | 0.13178    | 0.13338    | 0.13497    |   0.4 | 18.49
Other   |            | 0.008516   |            |       |  1.18

Nlocal:             16 ave          16 max          16 min
Histogram: 2 0 0 0 0 0 0 0 0 0
Nghost:            692 ave         695 max         689 min
Histogram: 1 0 0 0 0 0 0 0 0 1
Neighs:           1035 ave        1038 max        1032 min
Histogram: 1 0 0 0 0 0 0 0 0 1

Total # of neighbors = 2070
Ave neighs/atom = 64.6875
Neighbor list builds = 188
Dangerous builds = 0
unfix 2
# unfix 3

# NPT Production run at temperature
reset_timestep 0
variable prrunl equal 1E4
fix 3 all ave/time 1 10000 10000 c_mytemp c_mypress v_vmyvol v_avgEtotal
fix 4 all ave/time 1 10 10 c_mytemp c_mypress v_vmyvol v_avgEtotal file ${rampdown_pravgfile}
fix 4 all ave/time 1 10 10 c_mytemp c_mypress v_vmyvol v_avgEtotal file rampdown_pravg_1525.txt
# print to file average of every 10 steps. Every 10 femptoseconds

thermo 1000 # Print every "thermo" timesteps
run ${prrunl}
run 10000
Per MPI rank memory allocation (min/avg/max) = 3.707 | 3.707 | 3.707 Mbytes
   Step          Time           Temp          PotEng         KinEng         TotEng        c_mytemp      c_mypress        Volume    
         0   0              1392.9549     -96.981691      5.5816602     -91.400031      1392.9549      1964.1396      632.82685    
      1000   1              1392.336      -97.05644       5.57918       -91.47726       1392.336      -9476.7467      651.23782    
      2000   2              1678.527      -98.459922      6.7259658     -91.733956      1678.527      -5502.9253      627.07144    
      3000   3              1458.3897     -97.953569      5.8438615     -92.109707      1458.3897     -6254.4997      638.75449    
      4000   4              1205.22       -96.216934      4.8293943     -91.38754       1205.22       -4469.3979      656.51553    
      5000   5              1475.8203     -97.828421      5.9137069     -91.914714      1475.8203      10006.019      619.01803    
      6000   6              1498.9633     -96.218671      6.0064425     -90.212228      1498.9633     -2229.8217      655.62269    
      7000   7              1709.9659     -97.405895      6.8519437     -90.553951      1709.9659     -12683.624      651.55811    
      8000   8              1561.3699     -97.867495      6.2565099     -91.610985      1561.3699      2132.9166      629.32591    
      9000   9              1236.8492     -96.490205      4.9561343     -91.534071      1236.8492      9207.8501      634.22591    
     10000   10             1528.1286     -98.130989      6.1233097     -92.00768       1528.1286      8921.1471      616.52081    
Loop time of 0.779933 on 2 procs for 10000 steps with 32 atoms

Performance: 1107.787 ns/day, 0.022 hours/ns, 12821.612 timesteps/s
97.0% CPU use with 2 MPI tasks x 1 OpenMP threads

MPI task timing breakdown:
Section |  min time  |  avg time  |  max time  |%varavg| %total
---------------------------------------------------------------
Pair    | 0.47643    | 0.47648    | 0.47652    |   0.0 | 61.09
Neigh   | 0.0067127  | 0.0067229  | 0.0067331  |   0.0 |  0.86
Comm    | 0.097802   | 0.09933    | 0.10086    |   0.5 | 12.74
Output  | 0.00014867 | 0.00018759 | 0.00022652 |   0.0 |  0.02
Modify  | 0.18647    | 0.18869    | 0.19091    |   0.5 | 24.19
Other   |            | 0.008528   |            |       |  1.09

Nlocal:             16 ave          16 max          16 min
Histogram: 2 0 0 0 0 0 0 0 0 0
Nghost:          687.5 ave         698 max         677 min
Histogram: 1 0 0 0 0 0 0 0 0 1
Neighs:         1032.5 ave        1040 max        1025 min
Histogram: 1 0 0 0 0 0 0 0 0 1

Total # of neighbors = 2065
Ave neighs/atom = 64.53125
Neighbor list builds = 188
Dangerous builds = 0
variable final_temp_avg equal f_3[1]
variable final_press_avg equal f_3[2]
variable final_vol_avg equal f_3[3]
variable final_etot_avg equal f_3[4]

print "${final_temp_avg} ${final_press_avg} ${final_vol_avg} ${final_etot_avg}" append ${prallfile}
print "${final_temp_avg} ${final_press_avg} ${final_vol_avg} ${final_etot_avg}" append prall.txt
1520.53007549057 -318.489524003456 639.444068683519 -2.85198885181519

unfix 3
unfix 4
#unfix 1

next i
jump Ramp.txt.in LoopStart2
variable i loop ${LoopSize}
variable i loop 21
print " "
 
print "*******LOOP2 # $i*********"
*******LOOP2 # 21*********
print " "
 
variable tempvar equal ${TempFinal}+${TempStep}-${TempStep}*${i}
variable tempvar equal 2000+${TempStep}-${TempStep}*${i}
variable tempvar equal 2000+25-${TempStep}*${i}
variable tempvar equal 2000+25-25*${i}
variable tempvar equal 2000+25-25*21
variable rampdown_eqavgfile string rampdown_eqavg_${tempvar}.txt
variable rampdown_eqavgfile string rampdown_eqavg_1500.txt
variable rampdown_pravgfile string rampdown_pravg_${tempvar}.txt
variable rampdown_pravgfile string rampdown_pravg_1500.txt
# variable rampup_eqfile string rampup_eq_${tempvar}.txt

# NPT Equilibration run at temperature
reset_timestep 0
variable eqrunl equal 1E4 # Keep > 10000 to avoid crashing fix lines below for time avg output
fix 1 all npt temp ${tempvar} ${tempvar} 0.1 iso 1 1 1 drag 1 # npt ensemble molecular dynamics.
fix 1 all npt temp 1500 ${tempvar} 0.1 iso 1 1 1 drag 1 
fix 1 all npt temp 1500 1500 0.1 iso 1 1 1 drag 1 
fix 2 all ave/time 1 10 10 c_mytemp c_mypress v_vmyvol v_avgEtotal file ${rampdown_eqavgfile}
fix 2 all ave/time 1 10 10 c_mytemp c_mypress v_vmyvol v_avgEtotal file rampdown_eqavg_1500.txt
# print to file average of every 10 steps. Every 10 femptoseconds
thermo 1000 # Print every "thermo" timesteps
run ${eqrunl}
run 10000
Per MPI rank memory allocation (min/avg/max) = 3.707 | 3.707 | 3.707 Mbytes
   Step          Time           Temp          PotEng         KinEng         TotEng        c_mytemp      c_mypress        Volume    
         0   0              1528.1286     -98.130989      6.1233097     -92.00768       1528.1286      8921.1471      616.52081    
      1000   1              1577.3666     -97.543636      6.3206097     -91.223026      1577.3666      12437.524      632.81532    
      2000   2              1530.3311     -98.485774      6.1321352     -92.353639      1530.3311     -4192.9652      620.10814    
      3000   3              1208.262      -96.66967       4.8415837     -91.828086      1208.262       1645.3737      632.01421    
      4000   4              1464.5527     -97.070445      5.8685572     -91.201888      1464.5527     -14478.48       663.97441    
      5000   5              1124.6755     -95.857938      4.5066471     -91.351291      1124.6755      11642.755      642.02851    
      6000   6              1388.9156     -96.838446      5.5654743     -91.272972      1388.9156     -706.12196      640.65677    
      7000   7              1268.3297     -97.188014      5.0822788     -92.105735      1268.3297     -7195.1534      642.88536    
      8000   8              1532.478      -97.407136      6.1407382     -91.266398      1532.478      -2989.7226      644.18992    
      9000   9              1580.0272     -97.838889      6.331271      -91.507618      1580.0272      1616.4539      640.13382    
     10000   10             1252.8322     -96.661019      5.0201793     -91.64084       1252.8322      15186.579      622.0081     
Loop time of 0.726626 on 2 procs for 10000 steps with 32 atoms

Performance: 1189.058 ns/day, 0.020 hours/ns, 13762.240 timesteps/s
97.3% CPU use with 2 MPI tasks x 1 OpenMP threads

MPI task timing breakdown:
Section |  min time  |  avg time  |  max time  |%varavg| %total
---------------------------------------------------------------
Pair    | 0.47773    | 0.47833    | 0.47893    |   0.1 | 65.83
Neigh   | 0.0066983  | 0.0066998  | 0.0067014  |   0.0 |  0.92
Comm    | 0.098178   | 0.10035    | 0.10253    |   0.7 | 13.81
Output  | 0.00016315 | 0.00020229 | 0.00024142 |   0.0 |  0.03
Modify  | 0.13074    | 0.13224    | 0.13374    |   0.4 | 18.20
Other   |            | 0.008805   |            |       |  1.21

Nlocal:             16 ave          18 max          14 min
Histogram: 1 0 0 0 0 0 0 0 0 1
Nghost:            677 ave         684 max         670 min
Histogram: 1 0 0 0 0 0 0 0 0 1
Neighs:         1026.5 ave        1172 max         881 min
Histogram: 1 0 0 0 0 0 0 0 0 1

Total # of neighbors = 2053
Ave neighs/atom = 64.15625
Neighbor list builds = 189
Dangerous builds = 0
unfix 2
# unfix 3

# NPT Production run at temperature
reset_timestep 0
variable prrunl equal 1E4
fix 3 all ave/time 1 10000 10000 c_mytemp c_mypress v_vmyvol v_avgEtotal
fix 4 all ave/time 1 10 10 c_mytemp c_mypress v_vmyvol v_avgEtotal file ${rampdown_pravgfile}
fix 4 all ave/time 1 10 10 c_mytemp c_mypress v_vmyvol v_avgEtotal file rampdown_pravg_1500.txt
# print to file average of every 10 steps. Every 10 femptoseconds

thermo 1000 # Print every "thermo" timesteps
run ${prrunl}
run 10000
Per MPI rank memory allocation (min/avg/max) = 3.707 | 3.707 | 3.707 Mbytes
   Step          Time           Temp          PotEng         KinEng         TotEng        c_mytemp      c_mypress        Volume    
         0   0              1252.8322     -96.661019      5.0201793     -91.64084       1252.8322      15186.579      622.0081     
      1000   1              1407.547      -96.96702       5.6401316     -91.326888      1407.547       19746.213      621.24852    
      2000   2              1425.9291     -97.43635       5.7137898     -91.72256       1425.9291     -982.99636      636.65873    
      3000   3              1451.5233     -97.736157      5.8163475     -91.919809      1451.5233     -8410.0925      657.13001    
      4000   4              1570.6089     -98.190414      6.2935312     -91.896883      1570.6089      5303.1206      616.71981    
      5000   5              1430.3903     -96.878423      5.7316662     -91.146757      1430.3903     -9707.0512      657.06811    
      6000   6              1449.2997     -98.121318      5.8074376     -92.31388       1449.2997      1329.4536      645.0015     
      7000   7              1278.5759     -96.882913      5.1233362     -91.759577      1278.5759     -4421.6371      649.03698    
      8000   8              1520.5927     -97.595625      6.093113      -91.502512      1520.5927      2568.3639      629.7991     
      9000   9              1495.516      -98.287435      5.992629      -92.294806      1495.516       1025.0541      624.3099     
     10000   10             1338.0238     -96.824544      5.3615477     -91.462996      1338.0238      6958.9014      642.64173    
Loop time of 0.785261 on 2 procs for 10000 steps with 32 atoms

Performance: 1100.272 ns/day, 0.022 hours/ns, 12734.627 timesteps/s
96.6% CPU use with 2 MPI tasks x 1 OpenMP threads

MPI task timing breakdown:
Section |  min time  |  avg time  |  max time  |%varavg| %total
---------------------------------------------------------------
Pair    | 0.47232    | 0.47786    | 0.4834     |   0.8 | 60.85
Neigh   | 0.0066817  | 0.0067675  | 0.0068533  |   0.1 |  0.86
Comm    | 0.097782   | 0.10177    | 0.10575    |   1.2 | 12.96
Output  | 0.00021932 | 0.00050418 | 0.00078903 |   0.0 |  0.06
Modify  | 0.18867    | 0.18975    | 0.19083    |   0.2 | 24.16
Other   |            | 0.008614   |            |       |  1.10

Nlocal:             16 ave          18 max          14 min
Histogram: 1 0 0 0 0 0 0 0 0 1
Nghost:            692 ave         711 max         673 min
Histogram: 1 0 0 0 0 0 0 0 0 1
Neighs:           1010 ave        1142 max         878 min
Histogram: 1 0 0 0 0 0 0 0 0 1

Total # of neighbors = 2020
Ave neighs/atom = 63.125
Neighbor list builds = 189
Dangerous builds = 0
variable final_temp_avg equal f_3[1]
variable final_press_avg equal f_3[2]
variable final_vol_avg equal f_3[3]
variable final_etot_avg equal f_3[4]

print "${final_temp_avg} ${final_press_avg} ${final_vol_avg} ${final_etot_avg}" append ${prallfile}
print "${final_temp_avg} ${final_press_avg} ${final_vol_avg} ${final_etot_avg}" append prall.txt
1494.52317567128 -251.166625308527 635.941978911098 -2.86106997808115

unfix 3
unfix 4
#unfix 1

next i
jump Ramp.txt.in LoopStart2
variable i delete
Total wall time: 0:01:05
