
     Program BANDS v.7.3.1 starts on  5Oct2024 at 22:59:11 

     This program is part of the open-source Quantum ESPRESSO suite
     for quantum simulation of materials; please cite
         "P. Giannozzi et al., J. Phys.:Condens. Matter 21 395502 (2009);
         "P. Giannozzi et al., J. Phys.:Condens. Matter 29 465901 (2017);
         "P. Giannozzi et al., J. Chem. Phys. 152 154105 (2020);
          URL http://www.quantum-espresso.org", 
     in publications or presentations arising from this work. More details at
     http://www.quantum-espresso.org/quote

     Parallel version (MPI & OpenMP), running on       2 processor cores
     Number of MPI processes:                 2
     Threads/MPI process:                     1

     MPI processes distributed on     1 nodes
     R & G space division:  proc/nbgrp/npool/nimage =       2
     508834 MiB available memory on the printing compute node when the environment starts


     Reading xml data from directory:

     ./diamond.save/

     IMPORTANT: XC functional enforced from input :
     Exchange-correlation= PBE
                           (   1   4   3   4   0   0   0)
     Any further DFT definition will be discarded
     Please, verify this is what you really want


     Parallelization info
     --------------------
     sticks:   dense  smooth     PW     G-vecs:    dense   smooth      PW
     Min         156     126     42                 1847     1318     264
     Max         157     127     43                 1848     1319     267
     Sum         313     253     85                 3695     2637     531

     Using Slab Decomposition

     Reading collected, re-writing distributed wavefunctions
     high-symmetry point:  0.0000 0.0000 0.0000   x coordinate   0.0000
     high-symmetry point:  0.5000 0.0000 0.5000   x coordinate   0.7071
     high-symmetry point:  0.3750 0.3750 0.7500   x coordinate   1.1748
     high-symmetry point:  0.0000 0.0000 0.0000   x coordinate   2.0934
     high-symmetry point:  0.5000 0.5000 0.5000   x coordinate   2.9594
     high-symmetry point:  0.2500 0.2500 0.2500   x coordinate   3.3924

     Plottable bands (eV) written to file bands.dat.gnu
     Bands written to file bands.dat

 **************************************************************************

                    xk=(   0.00000,   0.00000,   0.00000  )

     point group O_h (m-3m) 
     there are 10 classes
     the character table:

       E     8C3   3C2   6C4   6C2'  i     8S6   3s_h  6S4   6s_d 
A_1g   1.00  1.00  1.00  1.00  1.00  1.00  1.00  1.00  1.00  1.00
A_2g   1.00  1.00  1.00 -1.00 -1.00  1.00  1.00  1.00 -1.00 -1.00
E_g    2.00 -1.00  2.00  0.00  0.00  2.00 -1.00  2.00  0.00  0.00
T_1g   3.00  0.00 -1.00  1.00 -1.00  3.00  0.00 -1.00  1.00 -1.00
T_2g   3.00  0.00 -1.00 -1.00  1.00  3.00  0.00 -1.00 -1.00  1.00
A_1u   1.00  1.00  1.00  1.00  1.00 -1.00 -1.00 -1.00 -1.00 -1.00
A_2u   1.00  1.00  1.00 -1.00 -1.00 -1.00 -1.00 -1.00  1.00  1.00
E_u    2.00 -1.00  2.00  0.00  0.00 -2.00  1.00 -2.00  0.00  0.00
T_1u   3.00  0.00 -1.00  1.00 -1.00 -3.00  0.00  1.00 -1.00  1.00
T_2u   3.00  0.00 -1.00 -1.00  1.00 -3.00  0.00  1.00  1.00 -1.00

     the symmetry operations in each class and the name of the first element:

     E        1
                                                                 
     8C3     17   19   20   18   24   21   22   23
                                                                 
     3C2      2    4    3
                                                                 
     6C4      7    8   15   16   12   11
                                                                 
     6C2'     5    6   14   13   10    9
                                                                 
     i       25
                                                                 
     8S6     41   43   44   42   48   45   46   47
                                                                 
     3s_h    26   28   27
                                                                 
     6S4     31   32   39   40   36   35
                                                                 
     6s_d    29   30   38   37   34   33
                                                                 

     Band symmetry, O_h (m-3m)  point group:

     e(  1 -  1) =     -8.13537  eV     1   --> A_1g G_1   G_1+
     e(  2 -  4) =     13.46997  eV     3   --> T_2g G_25' G_5+
     e(  5 -  7) =     19.12201  eV     3   --> T_1u G_15  G_4-
     e(  8 -  8) =     26.67462  eV     1   --> A_2u G_2'  G_2-

 **************************************************************************

 **************************************************************************

                    xk=(   0.05000,   0.00000,   0.05000  )

     point group C_2v (mm2) 
     there are  4 classes
     the character table:

       E     C2    s_v   s_v' 
A_1    1.00  1.00  1.00  1.00
A_2    1.00  1.00 -1.00 -1.00
B_1    1.00 -1.00  1.00 -1.00
B_2    1.00 -1.00 -1.00  1.00

     the symmetry operations in each class and the name of the first element:

     E        1
                                                                 
     C2       2
                                                                 
     s_v      3
                                                                 
     s_v'     4
                                                                 

     Band symmetry, C_2v (mm2)  point group:

     e(  1 -  1) =     -8.08888  eV     1   --> A_1  D_1  S_1  
     e(  2 -  2) =     13.19252  eV     1   --> B_2  D_4  S_4  
     e(  3 -  3) =     13.27463  eV     1   --> A_1  D_1  S_1  
     e(  4 -  4) =     13.44181  eV     1   --> A_2  D_2  S_2  
     e(  5 -  5) =     19.16959  eV     1   --> B_1  D_3  S_3  
     e(  6 -  6) =     19.27103  eV     1   --> A_1  D_1  S_1  
     e(  7 -  7) =     19.35010  eV     1   --> B_2  D_4  S_4  
     e(  8 -  8) =     26.71995  eV     1   --> B_2  D_4  S_4  

 **************************************************************************

 **************************************************************************

                    xk=(   0.10000,   0.00000,   0.10000  )

     Band symmetry, C_2v (mm2)  point group:

     e(  1 -  1) =     -7.94952  eV     1   --> A_1  D_1  S_1  
     e(  2 -  2) =     12.48202  eV     1   --> B_2  D_4  S_4  
     e(  3 -  3) =     12.74623  eV     1   --> A_1  D_1  S_1  
     e(  4 -  4) =     13.35595  eV     1   --> A_2  D_2  S_2  
     e(  5 -  5) =     19.31204  eV     1   --> B_1  D_3  S_3  
     e(  6 -  6) =     19.66835  eV     1   --> A_1  D_1  S_1  
     e(  7 -  7) =     19.90621  eV     1   --> B_2  D_4  S_4  
     e(  8 -  8) =     26.84562  eV     1   --> B_2  D_4  S_4  

 **************************************************************************

 **************************************************************************

                    xk=(   0.15000,   0.00000,   0.15000  )

     Band symmetry, C_2v (mm2)  point group:

     e(  1 -  1) =     -7.71898  eV     1   --> A_1  D_1  S_1  
     e(  2 -  2) =     11.56977  eV     1   --> B_2  D_4  S_4  
     e(  3 -  3) =     11.99832  eV     1   --> A_1  D_1  S_1  
     e(  4 -  4) =     13.21765  eV     1   --> A_2  D_2  S_2  
     e(  5 -  5) =     19.54858  eV     1   --> B_1  D_3  S_3  
     e(  6 -  6) =     20.21481  eV     1   --> A_1  D_1  S_1  
     e(  7 -  7) =     20.57662  eV     1   --> B_2  D_4  S_4  
     e(  8 -  8) =     27.01851  eV     1   --> B_2  D_4  S_4  

 **************************************************************************

 **************************************************************************

                    xk=(   0.20000,   0.00000,   0.20000  )

     Band symmetry, C_2v (mm2)  point group:

     e(  1 -  1) =     -7.39561  eV     1   --> A_1  D_1  S_1  
     e(  2 -  2) =     10.53481  eV     1   --> B_2  D_4  S_4  
     e(  3 -  3) =     11.12589  eV     1   --> A_1  D_1  S_1  
     e(  4 -  4) =     13.00478  eV     1   --> A_2  D_2  S_2  
     e(  5 -  5) =     19.87875  eV     1   --> B_1  D_3  S_3  
     e(  6 -  6) =     20.89254  eV     1   --> A_1  D_1  S_1  
     e(  7 -  7) =     21.22548  eV     1   --> B_2  D_4  S_4  
     e(  8 -  8) =     27.18336  eV     1   --> B_2  D_4  S_4  

 **************************************************************************

 **************************************************************************

                    xk=(   0.25000,   0.00000,   0.25000  )

     Band symmetry, C_2v (mm2)  point group:

     e(  1 -  1) =     -6.98154  eV     1   --> A_1  D_1  S_1  
     e(  2 -  2) =      9.48041  eV     1   --> B_2  D_4  S_4  
     e(  3 -  3) =     10.20933  eV     1   --> A_1  D_1  S_1  
     e(  4 -  4) =     12.75688  eV     1   --> A_2  D_2  S_2  
     e(  5 -  5) =     20.29852  eV     1   --> B_1  D_3  S_3  
     e(  6 -  6) =     21.62993  eV     1   --> A_1  D_1  S_1  
     e(  7 -  7) =     21.74637  eV     1   --> B_2  D_4  S_4  
     e(  8 -  8) =     27.27428  eV     1   --> B_2  D_4  S_4  

 **************************************************************************

 **************************************************************************

                    xk=(   0.30000,   0.00000,   0.30000  )

     Band symmetry, C_2v (mm2)  point group:

     e(  1 -  1) =     -6.47960  eV     1   --> A_1  D_1  S_1  
     e(  2 -  2) =      8.41956  eV     1   --> B_2  D_4  S_4  
     e(  3 -  3) =      9.25699  eV     1   --> A_1  D_1  S_1  
     e(  4 -  4) =     12.40330  eV     1   --> A_2  D_2  S_2  
     e(  5 -  5) =     20.80595  eV     1   --> B_1  D_3  S_3  
     e(  6 -  6) =     22.07093  eV     1   --> B_2  D_4  S_4  
     e(  7 -  7) =     22.38464  eV     1   --> A_1  D_1  S_1  
     e(  8 -  8) =     27.25610  eV     1   --> B_2  D_4  S_4  

 **************************************************************************

 **************************************************************************

                    xk=(   0.35000,   0.00000,   0.35000  )

     Band symmetry, C_2v (mm2)  point group:

     e(  1 -  1) =     -5.89209  eV     1   --> A_1  D_1  S_1  
     e(  2 -  2) =      7.39470  eV     1   --> B_2  D_4  S_4  
     e(  3 -  3) =      8.32276  eV     1   --> A_1  D_1  S_1  
     e(  4 -  4) =     11.97435  eV     1   --> A_2  D_2  S_2  
     e(  5 -  5) =     21.38689  eV     1   --> B_1  D_3  S_3  
     e(  6 -  6) =     22.19031  eV     1   --> B_2  D_4  S_4  
     e(  7 -  7) =     23.18937  eV     1   --> A_1  D_1  S_1  
     e(  8 -  8) =     27.15836  eV     1   --> B_2  D_4  S_4  

 **************************************************************************

 **************************************************************************

                    xk=(   0.40000,   0.00000,   0.40000  )

     Band symmetry, C_2v (mm2)  point group:

     e(  1 -  1) =     -5.21886  eV     1   --> A_1  D_1  S_1  
     e(  2 -  2) =      6.43085  eV     1   --> B_2  D_4  S_4  
     e(  3 -  3) =      7.43168  eV     1   --> A_1  D_1  S_1  
     e(  4 -  4) =     11.50467  eV     1   --> A_2  D_2  S_2  
     e(  5 -  5) =     22.06086  eV     1   --> B_1  D_3  S_3  
     e(  6 -  6) =     22.10395  eV     1   --> B_2  D_4  S_4  
     e(  7 -  7) =     24.05999  eV     1   --> A_1  D_1  S_1  
     e(  8 -  8) =     27.14731  eV     1   --> B_2  D_4  S_4  

 **************************************************************************

 **************************************************************************

                    xk=(   0.45000,   0.00000,   0.45000  )

     Band symmetry, C_2v (mm2)  point group:

     e(  1 -  1) =     -4.46694  eV     1   --> A_1  D_1  S_1  
     e(  2 -  2) =      5.52793  eV     1   --> B_2  D_4  S_4  
     e(  3 -  3) =      6.58850  eV     1   --> A_1  D_1  S_1  
     e(  4 -  4) =     10.99764  eV     1   --> A_2  D_2  S_2  
     e(  5 -  5) =     21.82972  eV     1   --> B_2  D_4  S_4  
     e(  6 -  6) =     22.80186  eV     1   --> B_1  D_3  S_3  
     e(  7 -  7) =     24.97519  eV     1   --> A_1  D_1  S_1  
     e(  8 -  8) =     27.23876  eV     1   --> B_2  D_4  S_4  

 **************************************************************************

 **************************************************************************

                    xk=(   0.50000,   0.00000,   0.50000  )

     Band symmetry, C_2v (mm2)  point group:

     e(  1 -  1) =     -3.64857  eV     1   --> A_1  D_1  S_1  
     e(  2 -  2) =      4.68672  eV     1   --> B_2  D_4  S_4  
     e(  3 -  3) =      5.81200  eV     1   --> A_1  D_1  S_1  
     e(  4 -  4) =     10.44908  eV     1   --> A_2  D_2  S_2  
     e(  5 -  5) =     21.41867  eV     1   --> B_2  D_4  S_4  
     e(  6 -  6) =     23.60639  eV     1   --> B_1  D_3  S_3  
     e(  7 -  7) =     25.93580  eV     1   --> A_1  D_1  S_1  
     e(  8 -  8) =     27.40680  eV     1   --> B_2  D_4  S_4  

 **************************************************************************

 **************************************************************************

                    xk=(   0.48750,   0.03750,   0.52500  )

     point group C_1 (1)    
     there are  1 classes
     the character table:

       E    
A      1.00

     the symmetry operations in each class and the name of the first element:

     E        1
                                                                 

     Band symmetry, C_1 (1)     point group:

     e(  1 -  1) =     -3.52389  eV     1   --> A              
     e(  2 -  2) =      4.37077  eV     1   --> A              
     e(  3 -  3) =      5.95065  eV     1   --> A              
     e(  4 -  4) =     10.35439  eV     1   --> A              
     e(  5 -  5) =     21.40941  eV     1   --> A              
     e(  6 -  6) =     23.62713  eV     1   --> A              
     e(  7 -  7) =     25.97186  eV     1   --> A              
     e(  8 -  8) =     27.49983  eV     1   --> A              

 **************************************************************************

 **************************************************************************

                    xk=(   0.47500,   0.07500,   0.55000  )

     Band symmetry, C_1 (1)     point group:

     e(  1 -  1) =     -3.36555  eV     1   --> A              
     e(  2 -  2) =      3.84598  eV     1   --> A              
     e(  3 -  3) =      6.32315  eV     1   --> A              
     e(  4 -  4) =     10.21424  eV     1   --> A              
     e(  5 -  5) =     21.49225  eV     1   --> A              
     e(  6 -  6) =     23.46869  eV     1   --> A              
     e(  7 -  7) =     25.89961  eV     1   --> A              
     e(  8 -  8) =     27.68194  eV     1   --> A              

 **************************************************************************

 **************************************************************************

                    xk=(   0.46250,   0.11250,   0.57500  )

     Band symmetry, C_1 (1)     point group:

     e(  1 -  1) =     -3.17461  eV     1   --> A              
     e(  2 -  2) =      3.28975  eV     1   --> A              
     e(  3 -  3) =      6.75440  eV     1   --> A              
     e(  4 -  4) =     10.02918  eV     1   --> A              
     e(  5 -  5) =     21.65418  eV     1   --> A              
     e(  6 -  6) =     23.16639  eV     1   --> A              
     e(  7 -  7) =     25.83834  eV     1   --> A              
     e(  8 -  8) =     27.84707  eV     1   --> A              

 **************************************************************************

 **************************************************************************

                    xk=(   0.45000,   0.15000,   0.60000  )

     Band symmetry, C_1 (1)     point group:

     e(  1 -  1) =     -2.95122  eV     1   --> A              
     e(  2 -  2) =      2.74419  eV     1   --> A              
     e(  3 -  3) =      7.18093  eV     1   --> A              
     e(  4 -  4) =      9.80651  eV     1   --> A              
     e(  5 -  5) =     21.84160  eV     1   --> A              
     e(  6 -  6) =     22.81208  eV     1   --> A              
     e(  7 -  7) =     25.79266  eV     1   --> A              
     e(  8 -  8) =     27.93214  eV     1   --> A              

 **************************************************************************

 **************************************************************************

                    xk=(   0.43750,   0.18750,   0.62500  )

     Band symmetry, C_1 (1)     point group:

     e(  1 -  1) =     -2.70372  eV     1   --> A              
     e(  2 -  2) =      2.23338  eV     1   --> A              
     e(  3 -  3) =      7.58116  eV     1   --> A              
     e(  4 -  4) =      9.58900  eV     1   --> A              
     e(  5 -  5) =     21.85934  eV     1   --> A              
     e(  6 -  6) =     22.66806  eV     1   --> A              
     e(  7 -  7) =     25.77133  eV     1   --> A              
     e(  8 -  8) =     27.99882  eV     1   --> A              

 **************************************************************************

 **************************************************************************

                    xk=(   0.42500,   0.22500,   0.65000  )

     Band symmetry, C_1 (1)     point group:

     e(  1 -  1) =     -2.43457  eV     1   --> A              
     e(  2 -  2) =      1.76597  eV     1   --> A              
     e(  3 -  3) =      7.89489  eV     1   --> A              
     e(  4 -  4) =      9.40058  eV     1   --> A              
     e(  5 -  5) =     21.54967  eV     1   --> A              
     e(  6 -  6) =     22.91740  eV     1   --> A              
     e(  7 -  7) =     25.72200  eV     1   --> A              
     e(  8 -  8) =     28.04923  eV     1   --> A              

 **************************************************************************

 **************************************************************************

                    xk=(   0.41250,   0.26250,   0.67500  )

     Band symmetry, C_1 (1)     point group:

     e(  1 -  1) =     -2.15930  eV     1   --> A              
     e(  2 -  2) =      1.35667  eV     1   --> A              
     e(  3 -  3) =      8.03957  eV     1   --> A              
     e(  4 -  4) =      9.30387  eV     1   --> A              
     e(  5 -  5) =     21.18035  eV     1   --> A              
     e(  6 -  6) =     23.32174  eV     1   --> A              
     e(  7 -  7) =     25.61999  eV     1   --> A              
     e(  8 -  8) =     28.10995  eV     1   --> A              

 **************************************************************************

 **************************************************************************

                    xk=(   0.40000,   0.30000,   0.70000  )

     Band symmetry, C_1 (1)     point group:

     e(  1 -  1) =     -1.90018  eV     1   --> A              
     e(  2 -  2) =      1.02952  eV     1   --> A              
     e(  3 -  3) =      7.98772  eV     1   --> A              
     e(  4 -  4) =      9.34649  eV     1   --> A              
     e(  5 -  5) =     20.88139  eV     1   --> A              
     e(  6 -  6) =     23.77493  eV     1   --> A              
     e(  7 -  7) =     25.46485  eV     1   --> A              
     e(  8 -  8) =     28.22001  eV     1   --> A              

 **************************************************************************

 **************************************************************************

                    xk=(   0.38750,   0.33750,   0.72500  )

     Band symmetry, C_1 (1)     point group:

     e(  1 -  1) =     -1.69265  eV     1   --> A              
     e(  2 -  2) =      0.83024  eV     1   --> A              
     e(  3 -  3) =      7.80207  eV     1   --> A              
     e(  4 -  4) =      9.44739  eV     1   --> A              
     e(  5 -  5) =     20.70096  eV     1   --> A              
     e(  6 -  6) =     24.22687  eV     1   --> A              
     e(  7 -  7) =     25.28507  eV     1   --> A              
     e(  8 -  8) =     28.38150  eV     1   --> A              

 **************************************************************************

 **************************************************************************

                    xk=(   0.37500,   0.37500,   0.75000  )

     point group C_s (m)    
     there are  2 classes
     the character table:

       E     s    
A'     1.00  1.00
A''    1.00 -1.00

     the symmetry operations in each class and the name of the first element:

     E        1
                                                                 
     s        2
                                                                 

     Band symmetry, C_s (m)     point group:

     e(  1 -  1) =     -1.58568  eV     1   --> A'             
     e(  2 -  2) =      0.79534  eV     1   --> A'             
     e(  3 -  3) =      7.55200  eV     1   --> A'             
     e(  4 -  4) =      9.51509  eV     1   --> A''            
     e(  5 -  5) =     20.65587  eV     1   --> A'             
     e(  6 -  6) =     24.45600  eV     1   --> A''            
     e(  7 -  7) =     25.23980  eV     1   --> A'             
     e(  8 -  8) =     28.56765  eV     1   --> A'             

 **************************************************************************

 **************************************************************************

                    xk=(   0.33750,   0.33750,   0.67500  )

     Band symmetry, C_s (m)     point group:

     e(  1 -  1) =     -2.25223  eV     1   --> A'             
     e(  2 -  2) =      1.26844  eV     1   --> A'             
     e(  3 -  3) =      8.35602  eV     1   --> A'             
     e(  4 -  4) =      9.47822  eV     1   --> A''            
     e(  5 -  5) =     20.59905  eV     1   --> A'             
     e(  6 -  6) =     24.36751  eV     1   --> A''            
     e(  7 -  7) =     24.78049  eV     1   --> A'             
     e(  8 -  8) =     27.94045  eV     1   --> A'             

 **************************************************************************

 **************************************************************************

                    xk=(   0.30000,   0.30000,   0.60000  )

     Band symmetry, C_s (m)     point group:

     e(  1 -  1) =     -3.33252  eV     1   --> A'             
     e(  2 -  2) =      2.40700  eV     1   --> A'             
     e(  3 -  3) =      9.17564  eV     1   --> A'             
     e(  4 -  4) =      9.57713  eV     1   --> A''            
     e(  5 -  5) =     20.58000  eV     1   --> A'             
     e(  6 -  6) =     24.13928  eV     1   --> A''            
     e(  7 -  7) =     24.27619  eV     1   --> A'             
     e(  8 -  8) =     27.37676  eV     1   --> A'             

 **************************************************************************

 **************************************************************************

                    xk=(   0.26250,   0.26250,   0.52500  )

     Band symmetry, C_s (m)     point group:

     e(  1 -  1) =     -4.39894  eV     1   --> A'             
     e(  2 -  2) =      3.78760  eV     1   --> A'             
     e(  3 -  3) =      9.82157  eV     1   --> A''            
     e(  4 -  4) =      9.99048  eV     1   --> A'             
     e(  5 -  5) =     20.53607  eV     1   --> A'             
     e(  6 -  6) =     23.75144  eV     1   --> A'             
     e(  7 -  7) =     23.82085  eV     1   --> A''            
     e(  8 -  8) =     27.04514  eV     1   --> A'             

 **************************************************************************

 **************************************************************************

                    xk=(   0.22500,   0.22500,   0.45000  )

     Band symmetry, C_s (m)     point group:

     e(  1 -  1) =     -5.36651  eV     1   --> A'             
     e(  2 -  2) =      5.31008  eV     1   --> A'             
     e(  3 -  3) =     10.20343  eV     1   --> A''            
     e(  4 -  4) =     10.77111  eV     1   --> A'             
     e(  5 -  5) =     20.42822  eV     1   --> A'             
     e(  6 -  6) =     23.18999  eV     1   --> A'             
     e(  7 -  7) =     23.37586  eV     1   --> A''            
     e(  8 -  8) =     27.00172  eV     1   --> A'             

 **************************************************************************

 **************************************************************************

                    xk=(   0.18750,   0.18750,   0.37500  )

     Band symmetry, C_s (m)     point group:

     e(  1 -  1) =     -6.20116  eV     1   --> A'             
     e(  2 -  2) =      6.92374  eV     1   --> A'             
     e(  3 -  3) =     10.70668  eV     1   --> A''            
     e(  4 -  4) =     11.49778  eV     1   --> A'             
     e(  5 -  5) =     20.20658  eV     1   --> A'             
     e(  6 -  6) =     22.56982  eV     1   --> A'             
     e(  7 -  7) =     22.75415  eV     1   --> A''            
     e(  8 -  8) =     27.14830  eV     1   --> A'             

 **************************************************************************

 **************************************************************************

                    xk=(   0.15000,   0.15000,   0.30000  )

     Band symmetry, C_s (m)     point group:

     e(  1 -  1) =     -6.89012  eV     1   --> A'             
     e(  2 -  2) =      8.59494  eV     1   --> A'             
     e(  3 -  3) =     11.32654  eV     1   --> A''            
     e(  4 -  4) =     12.15543  eV     1   --> A'             
     e(  5 -  5) =     19.93891  eV     1   --> A'             
     e(  6 -  6) =     21.88984  eV     1   --> A'             
     e(  7 -  7) =     21.94439  eV     1   --> A''            
     e(  8 -  8) =     27.26928  eV     1   --> A'             

 **************************************************************************

 **************************************************************************

                    xk=(   0.11250,   0.11250,   0.22500  )

     Band symmetry, C_s (m)     point group:

     e(  1 -  1) =     -7.43241  eV     1   --> A'             
     e(  2 -  2) =     10.24137  eV     1   --> A'             
     e(  3 -  3) =     12.00176  eV     1   --> A''            
     e(  4 -  4) =     12.69153  eV     1   --> A'             
     e(  5 -  5) =     19.63606  eV     1   --> A'             
     e(  6 -  6) =     21.02899  eV     1   --> A''            
     e(  7 -  7) =     21.11907  eV     1   --> A'             
     e(  8 -  8) =     27.17082  eV     1   --> A'             

 **************************************************************************

 **************************************************************************

                    xk=(   0.07500,   0.07500,   0.15000  )

     Band symmetry, C_s (m)     point group:

     e(  1 -  1) =     -7.82260  eV     1   --> A'             
     e(  2 -  2) =     11.75900  eV     1   --> A'             
     e(  3 -  3) =     12.68201  eV     1   --> A''            
     e(  4 -  4) =     13.10299  eV     1   --> A'             
     e(  5 -  5) =     19.36742  eV     1   --> A'             
     e(  6 -  6) =     20.12143  eV     1   --> A''            
     e(  7 -  7) =     20.23101  eV     1   --> A'             
     e(  8 -  8) =     26.94684  eV     1   --> A'             

 **************************************************************************

 **************************************************************************

                    xk=(   0.03750,   0.03750,   0.07500  )

     Band symmetry, C_s (m)     point group:

     e(  1 -  1) =     -8.05693  eV     1   --> A'             
     e(  2 -  2) =     12.96819  eV     1   --> A'             
     e(  3 -  3) =     13.24188  eV     1   --> A''            
     e(  4 -  4) =     13.37443  eV     1   --> A'             
     e(  5 -  5) =     19.18697  eV     1   --> A'             
     e(  6 -  6) =     19.40626  eV     1   --> A''            
     e(  7 -  7) =     19.46948  eV     1   --> A'             
     e(  8 -  8) =     26.75015  eV     1   --> A'             

 **************************************************************************

 **************************************************************************

                    xk=(   0.00000,   0.00000,   0.00000  )

     point group O_h (m-3m) 
     there are 10 classes
     the character table:

       E     8C3   3C2   6C4   6C2'  i     8S6   3s_h  6S4   6s_d 
A_1g   1.00  1.00  1.00  1.00  1.00  1.00  1.00  1.00  1.00  1.00
A_2g   1.00  1.00  1.00 -1.00 -1.00  1.00  1.00  1.00 -1.00 -1.00
E_g    2.00 -1.00  2.00  0.00  0.00  2.00 -1.00  2.00  0.00  0.00
T_1g   3.00  0.00 -1.00  1.00 -1.00  3.00  0.00 -1.00  1.00 -1.00
T_2g   3.00  0.00 -1.00 -1.00  1.00  3.00  0.00 -1.00 -1.00  1.00
A_1u   1.00  1.00  1.00  1.00  1.00 -1.00 -1.00 -1.00 -1.00 -1.00
A_2u   1.00  1.00  1.00 -1.00 -1.00 -1.00 -1.00 -1.00  1.00  1.00
E_u    2.00 -1.00  2.00  0.00  0.00 -2.00  1.00 -2.00  0.00  0.00
T_1u   3.00  0.00 -1.00  1.00 -1.00 -3.00  0.00  1.00 -1.00  1.00
T_2u   3.00  0.00 -1.00 -1.00  1.00 -3.00  0.00  1.00  1.00 -1.00

     the symmetry operations in each class and the name of the first element:

     E        1
                                                                 
     8C3     17   19   20   18   24   21   22   23
                                                                 
     3C2      2    4    3
                                                                 
     6C4      7    8   15   16   12   11
                                                                 
     6C2'     5    6   14   13   10    9
                                                                 
     i       25
                                                                 
     8S6     41   43   44   42   48   45   46   47
                                                                 
     3s_h    26   28   27
                                                                 
     6S4     31   32   39   40   36   35
                                                                 
     6s_d    29   30   38   37   34   33
                                                                 

     Band symmetry, O_h (m-3m)  point group:

     e(  1 -  1) =     -8.13537  eV     1   --> A_1g G_1   G_1+
     e(  2 -  4) =     13.46997  eV     3   --> T_2g G_25' G_5+
     e(  5 -  7) =     19.12201  eV     3   --> T_1u G_15  G_4-
     e(  8 -  8) =     26.67462  eV     1   --> A_2u G_2'  G_2-

 **************************************************************************

 **************************************************************************

                    xk=(   0.05000,   0.05000,   0.05000  )

     point group C_3v (3m)  
     there are  3 classes
     the character table:

       E     2C3   3s_v 
A_1    1.00  1.00  1.00
A_2    1.00  1.00 -1.00
E      2.00 -1.00  0.00

     the symmetry operations in each class and the name of the first element:

     E        1
                                                                 
     2C3      2    3
                                                                 
     3s_v     4    5    6
                                                                 

     Band symmetry, C_3v (3m)   point group:

     e(  1 -  1) =     -8.06564  eV     1   --> A_1  L_1       
     e(  2 -  2) =     12.98017  eV     1   --> A_1  L_1       
     e(  3 -  4) =     13.34618  eV     2   --> E    L_3       
     e(  5 -  6) =     19.28497  eV     2   --> E    L_3       
     e(  7 -  7) =     19.41805  eV     1   --> A_1  L_1       
     e(  8 -  8) =     26.74382  eV     1   --> A_1  L_1       

 **************************************************************************

 **************************************************************************

                    xk=(   0.10000,   0.10000,   0.10000  )

     Band symmetry, C_3v (3m)   point group:

     e(  1 -  1) =     -7.85740  eV     1   --> A_1  L_1       
     e(  2 -  2) =     11.79802  eV     1   --> A_1  L_1       
     e(  3 -  4) =     13.02729  eV     2   --> E    L_3       
     e(  5 -  6) =     19.71492  eV     2   --> E    L_3       
     e(  7 -  7) =     20.05481  eV     1   --> A_1  L_1       
     e(  8 -  8) =     26.95032  eV     1   --> A_1  L_1       

 **************************************************************************

 **************************************************************************

                    xk=(   0.15000,   0.15000,   0.15000  )

     Band symmetry, C_3v (3m)   point group:

     e(  1 -  1) =     -7.51047  eV     1   --> A_1  L_1       
     e(  2 -  2) =     10.24474  eV     1   --> A_1  L_1       
     e(  3 -  4) =     12.60035  eV     2   --> E    L_3       
     e(  5 -  6) =     20.28263  eV     2   --> E    L_3       
     e(  7 -  7) =     20.74196  eV     1   --> A_1  L_1       
     e(  8 -  8) =     27.28914  eV     1   --> A_1  L_1       

 **************************************************************************

 **************************************************************************

                    xk=(   0.20000,   0.20000,   0.20000  )

     Band symmetry, C_3v (3m)   point group:

     e(  1 -  1) =     -7.02705  eV     1   --> A_1  L_1       
     e(  2 -  2) =      8.56436  eV     1   --> A_1  L_1       
     e(  3 -  4) =     12.17035  eV     2   --> E    L_3       
     e(  5 -  6) =     20.86530  eV     2   --> E    L_3       
     e(  7 -  7) =     21.26018  eV     1   --> A_1  L_1       
     e(  8 -  8) =     27.72948  eV     1   --> A_1  L_1       

 **************************************************************************

 **************************************************************************

                    xk=(   0.25000,   0.25000,   0.25000  )

     Band symmetry, C_3v (3m)   point group:

     e(  1 -  1) =     -6.41143  eV     1   --> A_1  L_1       
     e(  2 -  2) =      6.82057  eV     1   --> A_1  L_1       
     e(  3 -  4) =     11.74400  eV     2   --> E    L_3       
     e(  5 -  6) =     21.34903  eV     2   --> E    L_3       
     e(  7 -  7) =     21.61972  eV     1   --> A_1  L_1       
     e(  8 -  8) =     28.19744  eV     1   --> A_1  L_1       

 **************************************************************************

 **************************************************************************

                    xk=(   0.30000,   0.30000,   0.30000  )

     Band symmetry, C_3v (3m)   point group:

     e(  1 -  1) =     -5.67117  eV     1   --> A_1  L_1       
     e(  2 -  2) =      5.13162  eV     1   --> A_1  L_1       
     e(  3 -  4) =     11.35982  eV     2   --> E    L_3       
     e(  5 -  6) =     21.70596  eV     2   --> E    L_3       
     e(  7 -  7) =     21.86315  eV     1   --> A_1  L_1       
     e(  8 -  8) =     28.61490  eV     1   --> A_1  L_1       

 **************************************************************************

 **************************************************************************

                    xk=(   0.35000,   0.35000,   0.35000  )

     Band symmetry, C_3v (3m)   point group:

     e(  1 -  1) =     -4.80834  eV     1   --> A_1  L_1       
     e(  2 -  2) =      3.49212  eV     1   --> A_1  L_1       
     e(  3 -  4) =     11.04847  eV     2   --> E    L_3       
     e(  5 -  6) =     21.89864  eV     2   --> E    L_3       
     e(  7 -  7) =     22.03107  eV     1   --> A_1  L_1       
     e(  8 -  8) =     28.89432  eV     1   --> A_1  L_1       

 **************************************************************************

 **************************************************************************

                    xk=(   0.40000,   0.40000,   0.40000  )

     Band symmetry, C_3v (3m)   point group:

     e(  1 -  1) =     -3.85432  eV     1   --> A_1  L_1       
     e(  2 -  2) =      1.98338  eV     1   --> A_1  L_1       
     e(  3 -  4) =     10.84212  eV     2   --> E    L_3       
     e(  5 -  6) =     21.97433  eV     2   --> E    L_3       
     e(  7 -  7) =     22.15061  eV     1   --> A_1  L_1       
     e(  8 -  8) =     29.11563  eV     1   --> A_1  L_1       

 **************************************************************************

 **************************************************************************

                    xk=(   0.45000,   0.45000,   0.45000  )

     Band symmetry, C_3v (3m)   point group:

     e(  1 -  1) =     -2.90077  eV     1   --> A_1  L_1       
     e(  2 -  2) =      0.66884  eV     1   --> A_1  L_1       
     e(  3 -  4) =     10.70859  eV     2   --> E    L_3       
     e(  5 -  6) =     21.99706  eV     2   --> E    L_3       
     e(  7 -  7) =     22.20701  eV     1   --> A_1  L_1       
     e(  8 -  8) =     29.22888  eV     1   --> A_1  L_1       

 **************************************************************************

 **************************************************************************

                    xk=(   0.50000,   0.50000,   0.50000  )

     zone border point and non-symmorphic group 
     symmetry decomposition not available

 **************************************************************************

 **************************************************************************

                    xk=(   0.47500,   0.47500,   0.47500  )

     point group C_3v (3m)  
     there are  3 classes
     the character table:

       E     2C3   3s_v 
A_1    1.00  1.00  1.00
A_2    1.00  1.00 -1.00
E      2.00 -1.00  0.00

     the symmetry operations in each class and the name of the first element:

     E        1
                                                                 
     2C3      2    3
                                                                 
     3s_v     4    5    6
                                                                 

     Band symmetry, C_3v (3m)   point group:

     e(  1 -  1) =     -2.51528  eV     1   --> A_1  L_1       
     e(  2 -  2) =      0.20411  eV     1   --> A_1  L_1       
     e(  3 -  4) =     10.67614  eV     2   --> E    L_3       
     e(  5 -  6) =     22.00108  eV     2   --> E    L_3       
     e(  7 -  7) =     22.22466  eV     1   --> A_1  L_1       
     e(  8 -  8) =     29.29242  eV     1   --> A_1  L_1       

 **************************************************************************

 **************************************************************************

                    xk=(   0.45000,   0.45000,   0.45000  )

     Band symmetry, C_3v (3m)   point group:

     e(  1 -  1) =     -2.90077  eV     1   --> A_1  L_1       
     e(  2 -  2) =      0.66884  eV     1   --> A_1  L_1       
     e(  3 -  4) =     10.70859  eV     2   --> E    L_3       
     e(  5 -  6) =     21.99706  eV     2   --> E    L_3       
     e(  7 -  7) =     22.20701  eV     1   --> A_1  L_1       
     e(  8 -  8) =     29.22888  eV     1   --> A_1  L_1       

 **************************************************************************

 **************************************************************************

                    xk=(   0.42500,   0.42500,   0.42500  )

     Band symmetry, C_3v (3m)   point group:

     e(  1 -  1) =     -3.36150  eV     1   --> A_1  L_1       
     e(  2 -  2) =      1.29256  eV     1   --> A_1  L_1       
     e(  3 -  4) =     10.76491  eV     2   --> E    L_3       
     e(  5 -  6) =     21.99288  eV     2   --> E    L_3       
     e(  7 -  7) =     22.18460  eV     1   --> A_1  L_1       
     e(  8 -  8) =     29.18818  eV     1   --> A_1  L_1       

 **************************************************************************

 **************************************************************************

                    xk=(   0.40000,   0.40000,   0.40000  )

     Band symmetry, C_3v (3m)   point group:

     e(  1 -  1) =     -3.85432  eV     1   --> A_1  L_1       
     e(  2 -  2) =      1.98338  eV     1   --> A_1  L_1       
     e(  3 -  4) =     10.84212  eV     2   --> E    L_3       
     e(  5 -  6) =     21.97433  eV     2   --> E    L_3       
     e(  7 -  7) =     22.15061  eV     1   --> A_1  L_1       
     e(  8 -  8) =     29.11563  eV     1   --> A_1  L_1       

 **************************************************************************

 **************************************************************************

                    xk=(   0.37500,   0.37500,   0.37500  )

     Band symmetry, C_3v (3m)   point group:

     e(  1 -  1) =     -4.33885  eV     1   --> A_1  L_1       
     e(  2 -  2) =      2.72482  eV     1   --> A_1  L_1       
     e(  3 -  4) =     10.93112  eV     2   --> E    L_3       
     e(  5 -  6) =     21.96591  eV     2   --> E    L_3       
     e(  7 -  7) =     22.10444  eV     1   --> A_1  L_1       
     e(  8 -  8) =     29.02535  eV     1   --> A_1  L_1       

 **************************************************************************

 **************************************************************************

                    xk=(   0.35000,   0.35000,   0.35000  )

     Band symmetry, C_3v (3m)   point group:

     e(  1 -  1) =     -4.80834  eV     1   --> A_1  L_1       
     e(  2 -  2) =      3.49212  eV     1   --> A_1  L_1       
     e(  3 -  4) =     11.04847  eV     2   --> E    L_3       
     e(  5 -  6) =     21.89864  eV     2   --> E    L_3       
     e(  7 -  7) =     22.03107  eV     1   --> A_1  L_1       
     e(  8 -  8) =     28.89432  eV     1   --> A_1  L_1       

 **************************************************************************

 **************************************************************************

                    xk=(   0.32500,   0.32500,   0.32500  )

     Band symmetry, C_3v (3m)   point group:

     e(  1 -  1) =     -5.25361  eV     1   --> A_1  L_1       
     e(  2 -  2) =      4.29750  eV     1   --> A_1  L_1       
     e(  3 -  4) =     11.18827  eV     2   --> E    L_3       
     e(  5 -  6) =     21.81708  eV     2   --> E    L_3       
     e(  7 -  7) =     21.95574  eV     1   --> A_1  L_1       
     e(  8 -  8) =     28.73440  eV     1   --> A_1  L_1       

 **************************************************************************

 **************************************************************************

                    xk=(   0.30000,   0.30000,   0.30000  )

     Band symmetry, C_3v (3m)   point group:

     e(  1 -  1) =     -5.67117  eV     1   --> A_1  L_1       
     e(  2 -  2) =      5.13162  eV     1   --> A_1  L_1       
     e(  3 -  4) =     11.35982  eV     2   --> E    L_3       
     e(  5 -  6) =     21.70596  eV     2   --> E    L_3       
     e(  7 -  7) =     21.86315  eV     1   --> A_1  L_1       
     e(  8 -  8) =     28.61490  eV     1   --> A_1  L_1       

 **************************************************************************

 **************************************************************************

                    xk=(   0.27500,   0.27500,   0.27500  )

     Band symmetry, C_3v (3m)   point group:

     e(  1 -  1) =     -6.05430  eV     1   --> A_1  L_1       
     e(  2 -  2) =      5.96265  eV     1   --> A_1  L_1       
     e(  3 -  4) =     11.55126  eV     2   --> E    L_3       
     e(  5 -  6) =     21.54023  eV     2   --> E    L_3       
     e(  7 -  7) =     21.75479  eV     1   --> A_1  L_1       
     e(  8 -  8) =     28.43126  eV     1   --> A_1  L_1       

 **************************************************************************

 **************************************************************************

                    xk=(   0.25000,   0.25000,   0.25000  )

     Band symmetry, C_3v (3m)   point group:

     e(  1 -  1) =     -6.41143  eV     1   --> A_1  L_1       
     e(  2 -  2) =      6.82057  eV     1   --> A_1  L_1       
     e(  3 -  4) =     11.74400  eV     2   --> E    L_3       
     e(  5 -  6) =     21.34903  eV     2   --> E    L_3       
     e(  7 -  7) =     21.61972  eV     1   --> A_1  L_1       
     e(  8 -  8) =     28.19744  eV     1   --> A_1  L_1       

 **************************************************************************

     BANDS        :      0.35s CPU      0.39s WALL


   This run was terminated on:  22:59:11   5Oct2024            

=------------------------------------------------------------------------------=
   JOB DONE.
=------------------------------------------------------------------------------=
