
     Program PWSCF v.7.3.1 starts on 15Oct2024 at 10:40:53 

     This program is part of the open-source Quantum ESPRESSO suite
     for quantum simulation of materials; please cite
         "P. Giannozzi et al., J. Phys.:Condens. Matter 21 395502 (2009);
         "P. Giannozzi et al., J. Phys.:Condens. Matter 29 465901 (2017);
         "P. Giannozzi et al., J. Chem. Phys. 152 154105 (2020);
          URL http://www.quantum-espresso.org", 
     in publications or presentations arising from this work. More details at
     http://www.quantum-espresso.org/quote

     Parallel version (MPI & OpenMP), running on       2 processor cores
     Number of MPI processes:                 2
     Threads/MPI process:                     1

     MPI processes distributed on     1 nodes
     510231 MiB available memory on the printing compute node when the environment starts

     Waiting for input...
     Reading input from standard input
     Message from routine read_cards :
     DEPRECATED: no units specified in ATOMIC_POSITIONS card
     Message from routine read_cards :
     ATOMIC_POSITIONS: units set to alat

     Current dimensions of program PWSCF are:
     Max number of different atomic species (ntypx) = 10
     Max number of k-points (npk) =  40000
     Max angular momentum in pseudopotentials (lmaxx) =  4

     R & G space division:  proc/nbgrp/npool/nimage =       2
     Subspace diagonalization in iterative solution of the eigenvalue problem:
     a serial algorithm will be used


     Parallelization info
     --------------------
     sticks:   dense  smooth     PW     G-vecs:    dense   smooth      PW
     Min         120     120     42                 1221     1221     264
     Max         121     121     43                 1224     1224     267
     Sum         241     241     85                 2445     2445     531

     Using Slab Decomposition



     bravais-lattice index     =            2
     lattice parameter (alat)  =      10.5000  a.u.
     unit-cell volume          =     289.4062 (a.u.)^3
     number of atoms/cell      =            2
     number of atomic types    =            2
     number of electrons       =         8.00
     number of Kohn-Sham states=            4
     kinetic-energy cutoff     =      16.0000  Ry
     charge density cutoff     =      64.0000  Ry
     scf convergence threshold =      1.0E-10
     mixing beta               =       0.7000
     number of iterations used =            8  plain     mixing
     Exchange-correlation=  SLA  PZ   NOGX NOGC
                           (   1   1   0   0   0   0   0)

     celldm(1)=  10.500000  celldm(2)=   0.000000  celldm(3)=   0.000000
     celldm(4)=   0.000000  celldm(5)=   0.000000  celldm(6)=   0.000000

     crystal axes: (cart. coord. in units of alat)
               a(1) = (  -0.500000   0.000000   0.500000 )  
               a(2) = (   0.000000   0.500000   0.500000 )  
               a(3) = (  -0.500000   0.500000   0.000000 )  

     reciprocal axes: (cart. coord. in units 2 pi/alat)
               b(1) = ( -1.000000 -1.000000  1.000000 )  
               b(2) = (  1.000000  1.000000  1.000000 )  
               b(3) = ( -1.000000  1.000000 -1.000000 )  


     PseudoPot. # 1 for Al read from file:
     ..//Al.pz-vbc.UPF
     MD5 check sum: 614279c88ff8d45c90147292d03ed420
     Pseudo is Norm-conserving, Zval =  3.0
     Generated by new atomic code, or converted to UPF format
     Using radial grid of  171 points,  2 beta functions with: 
                l(1) =   0
                l(2) =   1

     PseudoPot. # 2 for As read from file:
     ..//As.pz-bhs.UPF
     MD5 check sum: 451cd3365afcfc94d28b1934951c34a8
     Pseudo is Norm-conserving, Zval =  5.0
     Generated by new atomic code, or converted to UPF format
     Using radial grid of  525 points,  2 beta functions with: 
                l(1) =   0
                l(2) =   1

     atomic species   valence    mass     pseudopotential
     Al                3.00    26.98000     Al( 1.00)
     As                5.00    74.92000     As( 1.00)

     24 Sym. Ops. (no inversion) found



   Cartesian axes

     site n.     atom                  positions (alat units)
         1        Al     tau(   1) = (   0.0000000   0.0000000   0.0000000  )
         2        As     tau(   2) = (   0.2500000   0.2500000   0.2500000  )

     number of k points=    10
                       cart. coord. in units 2pi/alat
        k(    1) = (  -0.1250000   0.1250000   0.1250000), wk =   0.0625000
        k(    2) = (  -0.3750000   0.3750000  -0.1250000), wk =   0.1875000
        k(    3) = (   0.3750000  -0.3750000   0.6250000), wk =   0.1875000
        k(    4) = (   0.1250000  -0.1250000   0.3750000), wk =   0.1875000
        k(    5) = (  -0.1250000   0.6250000   0.1250000), wk =   0.1875000
        k(    6) = (   0.6250000  -0.1250000   0.8750000), wk =   0.3750000
        k(    7) = (   0.3750000   0.1250000   0.6250000), wk =   0.3750000
        k(    8) = (  -0.1250000  -0.8750000   0.1250000), wk =   0.1875000
        k(    9) = (  -0.3750000   0.3750000   0.3750000), wk =   0.0625000
        k(   10) = (   0.3750000  -0.3750000   1.1250000), wk =   0.1875000

     Dense  grid:     2445 G-vectors     FFT dimensions: (  20,  20,  20)

     Estimated max dynamical RAM per process >       1.10 MB

     Estimated total dynamical RAM >       2.19 MB

     Initial potential from superposition of free atoms

     starting charge       7.9977, renormalised to       8.0000
     Starting wfcs are    8 randomized atomic wfcs

     total cpu time spent up to now is        0.3 secs

     per-process dynamical memory:    17.8 Mb

     Self-consistent Calculation

     iteration #  1     ecut=    16.00 Ry     beta= 0.70
     Davidson diagonalization with overlap
     ethr =  1.00E-02,  avg # of iterations =  2.0

     Threshold (ethr) on eigenvalues was too large:
     Diagonalizing with lowered threshold

     Davidson diagonalization with overlap
     ethr =  8.19E-04,  avg # of iterations =  2.0

     total cpu time spent up to now is        0.3 secs

     total energy              =     -16.98603013 Ry
     estimated scf accuracy    <       0.06761157 Ry

     iteration #  2     ecut=    16.00 Ry     beta= 0.70
     Davidson diagonalization with overlap
     ethr =  8.45E-04,  avg # of iterations =  2.0

     total cpu time spent up to now is        0.3 secs

     total energy              =     -16.99687792 Ry
     estimated scf accuracy    <       0.00409133 Ry

     iteration #  3     ecut=    16.00 Ry     beta= 0.70
     Davidson diagonalization with overlap
     ethr =  5.11E-05,  avg # of iterations =  2.2

     total cpu time spent up to now is        0.3 secs

     total energy              =     -16.99745593 Ry
     estimated scf accuracy    <       0.00033689 Ry

     iteration #  4     ecut=    16.00 Ry     beta= 0.70
     Davidson diagonalization with overlap
     ethr =  4.21E-06,  avg # of iterations =  4.1

     total cpu time spent up to now is        0.3 secs

     total energy              =     -16.99764599 Ry
     estimated scf accuracy    <       0.00004518 Ry

     iteration #  5     ecut=    16.00 Ry     beta= 0.70
     Davidson diagonalization with overlap
     ethr =  5.65E-07,  avg # of iterations =  3.1

     total cpu time spent up to now is        0.4 secs

     total energy              =     -16.99765490 Ry
     estimated scf accuracy    <       0.00003600 Ry

     iteration #  6     ecut=    16.00 Ry     beta= 0.70
     Davidson diagonalization with overlap
     ethr =  4.50E-07,  avg # of iterations =  2.0

     total cpu time spent up to now is        0.4 secs

     total energy              =     -16.99766126 Ry
     estimated scf accuracy    <          2.8E-09 Ry

     iteration #  7     ecut=    16.00 Ry     beta= 0.70
     Davidson diagonalization with overlap
     ethr =  3.47E-11,  avg # of iterations = 11.1

     total cpu time spent up to now is        0.4 secs

     total energy              =     -16.99766165 Ry
     estimated scf accuracy    <       0.00000013 Ry

     iteration #  8     ecut=    16.00 Ry     beta= 0.70
     Davidson diagonalization with overlap
     ethr =  3.47E-11,  avg # of iterations =  5.7

     total cpu time spent up to now is        0.4 secs

     total energy              =     -16.99766166 Ry
     estimated scf accuracy    <          9.6E-09 Ry

     iteration #  9     ecut=    16.00 Ry     beta= 0.70
     Davidson diagonalization with overlap
     ethr =  3.47E-11,  avg # of iterations =  2.5

     total cpu time spent up to now is        0.4 secs

     End of self-consistent calculation

          k =-0.1250 0.1250 0.1250 (   319 PWs)   bands (ev):

    -6.8510   3.7247   4.9778   4.9778

          k =-0.3750 0.3750-0.1250 (   311 PWs)   bands (ev):

    -6.0736   1.0737   3.4145   4.6582

          k = 0.3750-0.3750 0.6250 (   314 PWs)   bands (ev):

    -5.4098  -0.4579   3.3990   4.0236

          k = 0.1250-0.1250 0.3750 (   312 PWs)   bands (ev):

    -6.4352   2.2322   4.2294   4.2795

          k =-0.1250 0.6250 0.1250 (   316 PWs)   bands (ev):

    -5.7090   0.8207   3.1014   3.4746

          k = 0.6250-0.1250 0.8750 (   313 PWs)   bands (ev):

    -4.9577  -0.1087   1.7603   2.8370

          k = 0.3750 0.1250 0.6250 (   315 PWs)   bands (ev):

    -5.4760   0.2182   2.4927   3.7389

          k =-0.1250-0.8750 0.1250 (   316 PWs)   bands (ev):

    -4.9968  -0.2156   2.3869   3.0495

          k =-0.3750 0.3750 0.3750 (   314 PWs)   bands (ev):

    -5.7992   0.0271   4.4051   4.4051

          k = 0.3750-0.3750 1.1250 (   309 PWs)   bands (ev):

    -5.1547  -0.1497   1.8418   3.7589

     highest occupied level (ev):     4.9778

!    total energy              =     -16.99766166 Ry
     estimated scf accuracy    <          4.8E-12 Ry

     The total energy is the sum of the following terms:
     one-electron contribution =       3.42726411 Ry
     hartree contribution      =       1.54130477 Ry
     xc contribution           =      -4.82876461 Ry
     ewald contribution        =     -17.13746592 Ry

     convergence has been achieved in   9 iterations

     Writing all to output data dir ./alas.save/ :
     XML data file, charge density, pseudopotentials, collected wavefunctions

     init_run     :      0.19s CPU      0.20s WALL (       1 calls)
     electrons    :      0.10s CPU      0.14s WALL (       1 calls)

     Called by init_run:
     wfcinit      :      0.03s CPU      0.03s WALL (       1 calls)
     potinit      :      0.00s CPU      0.00s WALL (       1 calls)
     hinit0       :      0.15s CPU      0.16s WALL (       1 calls)

     Called by electrons:
     c_bands      :      0.09s CPU      0.12s WALL (      10 calls)
     sum_band     :      0.01s CPU      0.01s WALL (      10 calls)
     v_of_rho     :      0.00s CPU      0.00s WALL (      10 calls)
     mix_rho      :      0.00s CPU      0.00s WALL (      10 calls)

     Called by c_bands:
     init_us_2    :      0.00s CPU      0.00s WALL (     210 calls)
     cegterg      :      0.09s CPU      0.11s WALL (     100 calls)

     Called by *egterg:
     cdiaghg      :      0.03s CPU      0.04s WALL (     457 calls)
     h_psi        :      0.07s CPU      0.09s WALL (     477 calls)
     g_psi        :      0.00s CPU      0.00s WALL (     367 calls)

     Called by h_psi:
     h_psi:calbec :      0.00s CPU      0.00s WALL (     477 calls)
     vloc_psi     :      0.07s CPU      0.08s WALL (     477 calls)
     add_vuspsi   :      0.00s CPU      0.00s WALL (     477 calls)

     General routines
     calbec       :      0.00s CPU      0.00s WALL (     477 calls)
     fft          :      0.14s CPU      0.15s WALL (      30 calls)
     ffts         :      0.00s CPU      0.00s WALL (      10 calls)
     fftw         :      0.06s CPU      0.07s WALL (    3660 calls)

     Parallel routines

     PWSCF        :      0.32s CPU      0.45s WALL


   This run was terminated on:  10:40:53  15Oct2024            

=------------------------------------------------------------------------------=
   JOB DONE.
=------------------------------------------------------------------------------=
