LAMMPS (23 Jun 2022 - Update 4)
OMP_NUM_THREADS environment is not set. Defaulting to 1 thread. (src/src/comm.cpp:98)
  using 1 OpenMP thread(s) per MPI task
Lattice spacing in x,y,z = 4.04525 4.04525 4.04525
Created orthogonal box = (0 0 0) to (8.0905 8.0905 8.0905)
  1 by 1 by 2 MPI processor grid
Created 32 atoms
  using lattice units in orthogonal box = (0 0 0) to (8.0905 8.0905 8.0905)
  create_atoms CPU = 0.000 seconds
Reading eam/alloy potential file ./Al_mm.eam.fs with DATE: 2007-06-11
Temp                     Press                     Vol                     Etotal
Neighbor list info ...
  update every 1 steps, delay 10 steps, check yes
  max neighbors/atom: 2000, page size: 100000
  master list distance cutoff = 8.5
  ghost atom cutoff = 8.5
  binsize = 4.25, bins = 2 2 2
  1 neighbor lists, perpetual/occasional/extra = 1 0 0
  (1) pair eam/alloy, perpetual
      attributes: half, newton on
      pair build: half/bin/atomonly/newton
      stencil: half/bin/3d
      bin: standard
Setting up Verlet run ...
  Unit style    : metal
  Current step  : 0
  Time step     : 0.001
Per MPI rank memory allocation (min/avg/max) = 3.346 | 3.346 | 3.346 Mbytes
   Step          Time           Temp          PotEng         KinEng         TotEng        c_mytemp      c_mypress        Volume    
         0   0              600           -109.14102      2.4042387     -106.73678      600            4854.6303      529.57331    
      1000   1              297.43987     -107.9281       1.1918607     -106.73624      297.43987      16140.891      529.57331    
      2000   2              328.31007     -108.05193      1.3155596     -106.73637      328.31007      15910.49       529.57331    
      3000   3              323.22736     -108.03156      1.2951929     -106.73636      323.22736      15720.917      529.57331    
      4000   4              271.89734     -107.82573      1.0895102     -106.73622      271.89734      16892.09       529.57331    
      5000   5              350.10661     -108.13931      1.4028998     -106.73641      350.10661      15163.968      529.57331    
Loop time of 0.363405 on 2 procs for 5000 steps with 32 atoms

Performance: 1188.757 ns/day, 0.020 hours/ns, 13758.762 timesteps/s
98.6% CPU use with 2 MPI tasks x 1 OpenMP threads

MPI task timing breakdown:
Section |  min time  |  avg time  |  max time  |%varavg| %total
---------------------------------------------------------------
Pair    | 0.23017    | 0.25121    | 0.27226    |   4.2 | 69.13
Neigh   | 0          | 0          | 0          |   0.0 |  0.00
Comm    | 0.046455   | 0.067382   | 0.088309   |   8.1 | 18.54
Output  | 3.6168e-05 | 5.5154e-05 | 7.4141e-05 |   0.0 |  0.02
Modify  | 0.036683   | 0.038689   | 0.040695   |   1.0 | 10.65
Other   |            | 0.006064   |            |       |  1.67

Nlocal:             16 ave          16 max          16 min
Histogram: 2 0 0 0 0 0 0 0 0 0
Nghost:            914 ave         914 max         914 min
Histogram: 2 0 0 0 0 0 0 0 0 0
Neighs:           1120 ave        1314 max         926 min
Histogram: 1 0 0 0 0 0 0 0 0 1

Total # of neighbors = 2240
Ave neighs/atom = 70
Neighbor list builds = 0
Dangerous builds = 0
Setting up Verlet run ...
  Unit style    : metal
  Current step  : 5000
  Time step     : 0.001
Per MPI rank memory allocation (min/avg/max) = 3.605 | 3.605 | 3.605 Mbytes
   Step          Time           Temp          PotEng         KinEng         TotEng        c_mytemp      c_mypress        Volume    
      5000   5              350.10661     -108.13931      1.4028998     -106.73641      350.10661      15163.968      529.57331    
      6000   6              765.23955     -102.34879      3.0663642     -99.28243       765.23955      212766.87      458.61851    
      7000   7              679.32997     -102.64607      2.722119      -99.923956      679.32997      192469.03      463.5678     
      8000   8              833.45585     -102.80506      3.3397113     -99.465352      833.45585      206508.98      460.41657    
      9000   9              792.42715     -102.95642      3.1753067     -99.781115      792.42715      203119.31      462.58159    
     10000   10             695.70862     -102.75642      2.7877493     -99.968673      695.70862      193864.96      463.60432    
Loop time of 0.460223 on 2 procs for 5000 steps with 32 atoms

Performance: 938.675 ns/day, 0.026 hours/ns, 10864.289 timesteps/s
97.7% CPU use with 2 MPI tasks x 1 OpenMP threads

MPI task timing breakdown:
Section |  min time  |  avg time  |  max time  |%varavg| %total
---------------------------------------------------------------
Pair    | 0.25555    | 0.29747    | 0.33939    |   7.7 | 64.64
Neigh   | 3.8382e-05 | 4.6863e-05 | 5.5344e-05 |   0.0 |  0.01
Comm    | 0.049659   | 0.091144   | 0.13263    |  13.7 | 19.80
Output  | 7.9761e-05 | 0.00032748 | 0.00057521 |   0.0 |  0.07
Modify  | 0.065967   | 0.066304   | 0.06664    |   0.1 | 14.41
Other   |            | 0.00493    |            |       |  1.07

Nlocal:             16 ave          17 max          15 min
Histogram: 1 0 0 0 0 0 0 0 0 1
Nghost:            914 ave         915 max         913 min
Histogram: 1 0 0 0 0 0 0 0 0 1
Neighs:           1515 ave        1901 max        1129 min
Histogram: 1 0 0 0 0 0 0 0 0 1

Total # of neighbors = 3030
Ave neighs/atom = 94.6875
Neighbor list builds = 1
Dangerous builds = 0
 
*******LOOP # 1*********
 
Setting up Verlet run ...
  Unit style    : metal
  Current step  : 0
  Time step     : 0.001
Per MPI rank memory allocation (min/avg/max) = 3.605 | 3.605 | 3.605 Mbytes
   Step          Time           Temp          PotEng         KinEng         TotEng        c_mytemp      c_mypress        Volume    
         0   0              695.70862     -102.75642      2.7877493     -99.968673      695.70862      193864.96      463.60432    
      1000   1              815.38251     -101.56547      3.2672903     -98.298177      815.38251      196892.23      464.33204    
      2000   2              1001.9631     -101.94831      4.0149308     -97.933381      1001.9631      204686.28      461.42868    
      3000   3              933.02794     -101.89136      3.7387031     -98.152654      933.02794      198448.31      463.38969    
      4000   4              1044.8259     -102.03917      4.186685      -97.852485      1044.8259      207406.43      461.33914    
      5000   5              916.2172      -101.15512      3.6713414     -97.483779      916.2172       210141.17      458.43467    
      6000   6              773.68896     -101.01671      3.1002216     -97.916492      773.68896      197368.9       461.25768    
      7000   7              1008.2099     -102.16567      4.0399621     -98.125712      1008.2099      198843.22      463.37279    
      8000   8              873.06445     -101.66659      3.4984256     -98.168164      873.06445      198627.07      463.00152    
      9000   9              857.40913     -101.40205      3.4356937     -97.966353      857.40913      199875.47      462.73044    
     10000   10             901.64709     -101.64278      3.612958      -98.029822      901.64709      200116.27      462.73195    
Loop time of 0.916186 on 2 procs for 10000 steps with 32 atoms

Performance: 943.040 ns/day, 0.025 hours/ns, 10914.813 timesteps/s
98.0% CPU use with 2 MPI tasks x 1 OpenMP threads

MPI task timing breakdown:
Section |  min time  |  avg time  |  max time  |%varavg| %total
---------------------------------------------------------------
Pair    | 0.56172    | 0.61431    | 0.66691    |   6.7 | 67.05
Neigh   | 0          | 0          | 0          |   0.0 |  0.00
Comm    | 0.10111    | 0.15341    | 0.20571    |  13.4 | 16.74
Output  | 6.959e-05  | 0.00010976 | 0.00014993 |   0.0 |  0.01
Modify  | 0.1375     | 0.13817    | 0.13883    |   0.2 | 15.08
Other   |            | 0.01018    |            |       |  1.11

Nlocal:             16 ave          16 max          16 min
Histogram: 2 0 0 0 0 0 0 0 0 0
Nghost:            914 ave         914 max         914 min
Histogram: 2 0 0 0 0 0 0 0 0 0
Neighs:         1432.5 ave        1674 max        1191 min
Histogram: 1 0 0 0 0 0 0 0 0 1

Total # of neighbors = 2865
Ave neighs/atom = 89.53125
Neighbor list builds = 0
Dangerous builds = 0
Setting up Verlet run ...
  Unit style    : metal
  Current step  : 0
  Time step     : 0.001
Per MPI rank memory allocation (min/avg/max) = 3.605 | 3.605 | 3.605 Mbytes
   Step          Time           Temp          PotEng         KinEng         TotEng        c_mytemp      c_mypress        Volume    
         0   0              901.64709     -101.64278      3.612958      -98.029822      901.64709      200116.27      462.73195    
      1000   1              883.68147     -101.58412      3.5409686     -98.043153      883.68147      198817.88      463.12935    
      2000   2              950.76142     -102.11737      3.8097623     -98.307606      950.76142      196503.57      464.37559    
      3000   3              759.54373     -100.61874      3.0435407     -97.575202      759.54373      205927.08      458.83304    
      4000   4              925.86888     -101.73342      3.7100163     -98.023405      925.86888      200465.68      462.26596    
      5000   5              1058.2105     -102.33871      4.2403179     -98.098389      1058.2105      199459.33      463.24791    
      6000   6              832.98128     -101.9989       3.3378097     -98.661085      832.98128      187757.76      466.9008     
      7000   7              795.60837     -101.59729      3.1880541     -98.409235      795.60837      191519.72      466.19791    
      8000   8              924.28279     -101.88396      3.7036608     -98.180299      924.28279      193438.99      464.29148    
      9000   9              968.28032     -102.08361      3.8799617     -98.20365       968.28032      198689.42      463.21777    
     10000   10             767.63877     -100.8511       3.075978      -97.775123      767.63877      198187.36      460.18439    
Loop time of 1.00035 on 2 procs for 10000 steps with 32 atoms

Performance: 863.698 ns/day, 0.028 hours/ns, 9996.501 timesteps/s
98.1% CPU use with 2 MPI tasks x 1 OpenMP threads

MPI task timing breakdown:
Section |  min time  |  avg time  |  max time  |%varavg| %total
---------------------------------------------------------------
Pair    | 0.5595     | 0.62313    | 0.68675    |   8.1 | 62.29
Neigh   | 0          | 0          | 0          |   0.0 |  0.00
Comm    | 0.10231    | 0.16544    | 0.22856    |  15.5 | 16.54
Output  | 6.8888e-05 | 0.00011255 | 0.00015621 |   0.0 |  0.01
Modify  | 0.20101    | 0.2014     | 0.20179    |   0.1 | 20.13
Other   |            | 0.01028    |            |       |  1.03

Nlocal:             16 ave          16 max          16 min
Histogram: 2 0 0 0 0 0 0 0 0 0
Nghost:            914 ave         914 max         914 min
Histogram: 2 0 0 0 0 0 0 0 0 0
Neighs:           1434 ave        1705 max        1163 min
Histogram: 1 0 0 0 0 0 0 0 0 1

Total # of neighbors = 2868
Ave neighs/atom = 89.625
Neighbor list builds = 0
Dangerous builds = 0
899.585877292948 199738.575601458 462.1969517963 -3.06205159003176
 
*******LOOP # 2*********
 
Setting up Verlet run ...
  Unit style    : metal
  Current step  : 0
  Time step     : 0.001
Per MPI rank memory allocation (min/avg/max) = 3.605 | 3.605 | 3.605 Mbytes
   Step          Time           Temp          PotEng         KinEng         TotEng        c_mytemp      c_mypress        Volume    
         0   0              767.63877     -100.8511       3.075978      -97.775123      767.63877      198187.36      460.18439    
      1000   1              1062.9573     -101.69963      4.2593383     -97.440287      1062.9573      207148.21      459.94899    
      2000   2              1050.0049     -101.49366      4.2074375     -97.286222      1050.0049      204942.48      459.26232    
      3000   3              914.02749     -101.78629      3.6625671     -98.123727      914.02749      189548.13      465.33158    
      4000   4              1031.8198     -101.78668      4.1345685     -97.652115      1031.8198      202289.97      462.00194    
      5000   5              950.7575      -101.41246      3.8097466     -97.602711      950.7575       202224.96      461.13797    
      6000   6              1006.7239     -101.58866      4.0340075     -97.554656      1006.7239      206427.37      460.52283    
      7000   7              810.52065     -100.654        3.2478085     -97.406189      810.52065      200078.74      459.71548    
      8000   8              845.11232     -100.72324      3.3864196     -97.336824      845.11232      200672.19      459.66916    
      9000   9              1144.3381     -102.28797      4.5854365     -97.702535      1144.3381      200591.67      462.43031    
     10000   10             857.89321     -100.91686      3.4376334     -97.479229      857.89321      200467.95      460.74191    
Loop time of 0.843059 on 2 procs for 10000 steps with 32 atoms

Performance: 1024.839 ns/day, 0.023 hours/ns, 11861.562 timesteps/s
97.7% CPU use with 2 MPI tasks x 1 OpenMP threads

MPI task timing breakdown:
Section |  min time  |  avg time  |  max time  |%varavg| %total
---------------------------------------------------------------
Pair    | 0.57222    | 0.58519    | 0.59816    |   1.7 | 69.41
Neigh   | 0          | 0          | 0          |   0.0 |  0.00
Comm    | 0.10014    | 0.11309    | 0.12604    |   3.9 | 13.41
Output  | 0.0001509  | 0.00038293 | 0.00061496 |   0.0 |  0.05
Modify  | 0.13362    | 0.13461    | 0.13561    |   0.3 | 15.97
Other   |            | 0.009782   |            |       |  1.16

Nlocal:             16 ave          17 max          15 min
Histogram: 1 0 0 0 0 0 0 0 0 1
Nghost:            914 ave         915 max         913 min
Histogram: 1 0 0 0 0 0 0 0 0 1
Neighs:         1443.5 ave        1548 max        1339 min
Histogram: 1 0 0 0 0 0 0 0 0 1

Total # of neighbors = 2887
Ave neighs/atom = 90.21875
Neighbor list builds = 0
Dangerous builds = 0
Setting up Verlet run ...
  Unit style    : metal
  Current step  : 0
  Time step     : 0.001
Per MPI rank memory allocation (min/avg/max) = 3.605 | 3.605 | 3.605 Mbytes
   Step          Time           Temp          PotEng         KinEng         TotEng        c_mytemp      c_mypress        Volume    
         0   0              857.89321     -100.91686      3.4376334     -97.479229      857.89321      200467.95      460.74191    
      1000   1              969.22759     -101.75644      3.8837574     -97.872687      969.22759      197624.26      462.7289     
      2000   2              982.97759     -101.74551      3.9388546     -97.806651      982.97759      200998.83      462.4117     
      3000   3              750.2176      -100.56595      3.0061703     -97.559782      750.2176       195709.72      460.40326    
      4000   4              836.34562     -100.97381      3.3512908     -97.622515      836.34562      198924.08      461.6254     
      5000   5              926.09211     -101.26429      3.7109108     -97.553378      926.09211      199510.46      461.03306    
      6000   6              762.65814     -100.7275       3.0560204     -97.671483      762.65814      199545.63      461.70882    
      7000   7              987.76777     -101.5706       3.9580492     -97.612547      987.76777      199665.29      461.06744    
      8000   8              1044.8156     -101.91401      4.1866434     -97.72737       1044.8156      197131.41      462.51004    
      9000   9              935.45711     -101.75651      3.748437      -98.008077      935.45711      193076.29      463.8504     
     10000   10             957.66397     -101.7895       3.8374213     -97.952077      957.66397      197979.73      463.71341    
Loop time of 0.953021 on 2 procs for 10000 steps with 32 atoms

Performance: 906.591 ns/day, 0.026 hours/ns, 10492.951 timesteps/s
97.8% CPU use with 2 MPI tasks x 1 OpenMP threads

MPI task timing breakdown:
Section |  min time  |  avg time  |  max time  |%varavg| %total
---------------------------------------------------------------
Pair    | 0.56873    | 0.6038     | 0.63888    |   4.5 | 63.36
Neigh   | 0          | 0          | 0          |   0.0 |  0.00
Comm    | 0.1025     | 0.13758    | 0.17266    |   9.5 | 14.44
Output  | 6.6024e-05 | 0.00010735 | 0.00014867 |   0.0 |  0.01
Modify  | 0.20056    | 0.20145    | 0.20234    |   0.2 | 21.14
Other   |            | 0.01008    |            |       |  1.06

Nlocal:             16 ave          17 max          15 min
Histogram: 1 0 0 0 0 0 0 0 0 1
Nghost:            914 ave         915 max         913 min
Histogram: 1 0 0 0 0 0 0 0 0 1
Neighs:         1443.5 ave        1635 max        1252 min
Histogram: 1 0 0 0 0 0 0 0 0 1

Total # of neighbors = 2887
Ave neighs/atom = 90.21875
Neighbor list builds = 0
Dangerous builds = 0
924.654988502773 199740.11879192 461.83544849629 -3.05314545752396
 
*******LOOP # 3*********
 
Setting up Verlet run ...
  Unit style    : metal
  Current step  : 0
  Time step     : 0.001
Per MPI rank memory allocation (min/avg/max) = 3.605 | 3.605 | 3.605 Mbytes
   Step          Time           Temp          PotEng         KinEng         TotEng        c_mytemp      c_mypress        Volume    
         0   0              957.66397     -101.7895       3.8374213     -97.952077      957.66397      197979.73      463.71341    
      1000   1              1133.229      -102.3372       4.5409217     -97.79628       1133.229       197943.92      464.30378    
      2000   2              655.49649     -100.56721      2.6266167     -97.940595      655.49649      191437.59      464.20375    
      3000   3              1016.3553     -101.56167      4.0726011     -97.489065      1016.3553      203263.85      461.68171    
      4000   4              1051.89       -101.71301      4.214991      -97.498023      1051.89        199104.8       462.21308    
      5000   5              973.75955     -101.38601      3.9019173     -97.48409       973.75955      199726.4       462.2994     
      6000   6              960.95582     -100.56698      3.8506119     -96.716367      960.95582      207969.41      456.3987     
      7000   7              1064.3832     -101.86956      4.2650522     -97.604507      1064.3832      197701.37      463.46455    
      8000   8              813.96388     -100.56552      3.2616058     -97.303912      813.96388      198474.45      460.03606    
      9000   9              997.80995     -101.1714       3.9982888     -97.173113      997.80995      200849.54      459.92791    
     10000   10             913.01062     -101.26646      3.6584924     -97.607963      913.01062      193045.43      462.89108    
Loop time of 0.872514 on 2 procs for 10000 steps with 32 atoms

Performance: 990.242 ns/day, 0.024 hours/ns, 11461.137 timesteps/s
98.1% CPU use with 2 MPI tasks x 1 OpenMP threads

MPI task timing breakdown:
Section |  min time  |  avg time  |  max time  |%varavg| %total
---------------------------------------------------------------
Pair    | 0.53728    | 0.58546    | 0.63364    |   6.3 | 67.10
Neigh   | 0          | 0          | 0          |   0.0 |  0.00
Comm    | 0.098167   | 0.14589    | 0.19362    |  12.5 | 16.72
Output  | 6.7947e-05 | 0.00011463 | 0.00016132 |   0.0 |  0.01
Modify  | 0.13049    | 0.13109    | 0.13169    |   0.2 | 15.02
Other   |            | 0.009958   |            |       |  1.14

Nlocal:             16 ave          16 max          16 min
Histogram: 2 0 0 0 0 0 0 0 0 0
Nghost:            914 ave         914 max         914 min
Histogram: 2 0 0 0 0 0 0 0 0 0
Neighs:         1437.5 ave        1695 max        1180 min
Histogram: 1 0 0 0 0 0 0 0 0 1

Total # of neighbors = 2875
Ave neighs/atom = 89.84375
Neighbor list builds = 0
Dangerous builds = 0
Setting up Verlet run ...
  Unit style    : metal
  Current step  : 0
  Time step     : 0.001
Per MPI rank memory allocation (min/avg/max) = 3.605 | 3.605 | 3.605 Mbytes
   Step          Time           Temp          PotEng         KinEng         TotEng        c_mytemp      c_mypress        Volume    
         0   0              913.01062     -101.26646      3.6584924     -97.607963      913.01062      193045.43      462.89108    
      1000   1              966.35258     -101.59784      3.8722371     -97.725608      966.35258      193781.29      463.47263    
      2000   2              1049.4844     -101.86431      4.2053515     -97.658957      1049.4844      197916.97      463.18018    
      3000   3              1056.6577     -101.55078      4.2340956     -97.316684      1056.6577      202141.4       460.24757    
      4000   4              814.37765     -100.38942      3.2632638     -97.126159      814.37765      207358.49      458.97958    
      5000   5              1022.7127     -101.32168      4.0980759     -97.223605      1022.7127      203813.14      460.0522     
      6000   6              851.09428     -100.6001       3.4103897     -97.189712      851.09428      206364.52      459.50652    
      7000   7              976.69872     -101.39931      3.9136948     -97.485613      976.69872      198176.42      461.10515    
      8000   8              946.28474     -101.47063      3.791824      -97.678802      946.28474      199643.5       463.41303    
      9000   9              1013.7795     -101.37845      4.0622798     -97.316174      1013.7795      207398.85      460.77688    
     10000   10             1004.9691     -101.67642      4.0269759     -97.649446      1004.9691      195902         463.12549    
Loop time of 1.03693 on 2 procs for 10000 steps with 32 atoms

Performance: 833.225 ns/day, 0.029 hours/ns, 9643.812 timesteps/s
98.2% CPU use with 2 MPI tasks x 1 OpenMP threads

MPI task timing breakdown:
Section |  min time  |  avg time  |  max time  |%varavg| %total
---------------------------------------------------------------
Pair    | 0.54475    | 0.63328    | 0.72181    |  11.1 | 61.07
Neigh   | 0          | 0          | 0          |   0.0 |  0.00
Comm    | 0.10333    | 0.19097    | 0.27862    |  20.1 | 18.42
Output  | 0.00015041 | 0.00037431 | 0.00059822 |   0.0 |  0.04
Modify  | 0.20076    | 0.20149    | 0.20222    |   0.2 | 19.43
Other   |            | 0.01082    |            |       |  1.04

Nlocal:             16 ave          17 max          15 min
Histogram: 1 0 0 0 0 0 0 0 0 1
Nghost:            914 ave         915 max         913 min
Histogram: 1 0 0 0 0 0 0 0 0 1
Neighs:         1437.5 ave        1857 max        1018 min
Histogram: 1 0 0 0 0 0 0 0 0 1

Total # of neighbors = 2875
Ave neighs/atom = 89.84375
Neighbor list builds = 0
Dangerous builds = 0
949.258814364668 199762.176240134 461.565386137701 -3.0452931623813
 
*******LOOP # 4*********
 
Setting up Verlet run ...
  Unit style    : metal
  Current step  : 0
  Time step     : 0.001
Per MPI rank memory allocation (min/avg/max) = 3.605 | 3.605 | 3.605 Mbytes
   Step          Time           Temp          PotEng         KinEng         TotEng        c_mytemp      c_mypress        Volume    
         0   0              1004.9691     -101.67642      4.0269759     -97.649446      1004.9691      195902         463.12549    
      1000   1              1053.3702     -101.18859      4.2209223     -96.967669      1053.3702      201978.16      460.10961    
      2000   2              1086.2596     -101.78213      4.3527125     -97.429419      1086.2596      202949.57      462.89144    
      3000   3              1161.1929     -101.7295       4.6529748     -97.076529      1161.1929      205141.45      460.37396    
      4000   4              1115.7692     -101.45932      4.4709591     -96.988359      1115.7692      203958.42      460.56945    
      5000   5              1007.7699     -100.99385      4.0381989     -96.955649      1007.7699      200100.02      460.77458    
      6000   6              1080.6423     -101.57787      4.3302036     -97.247662      1080.6423      202238.44      462.73718    
      7000   7              921.38084     -100.80604      3.6920324     -97.114008      921.38084      202796.85      460.13304    
      8000   8              1072.4243     -101.39403      4.2972734     -97.096752      1072.4243      201961.8       460.65671    
      9000   9              931.3259      -101.2668       3.7318829     -97.534918      931.3259       198538.15      462.85669    
     10000   10             996.96203     -101.64373      3.9948912     -97.648835      996.96203      190354.3       465.15778    
Loop time of 1.04156 on 2 procs for 10000 steps with 32 atoms

Performance: 829.527 ns/day, 0.029 hours/ns, 9601.006 timesteps/s
97.5% CPU use with 2 MPI tasks x 1 OpenMP threads

MPI task timing breakdown:
Section |  min time  |  avg time  |  max time  |%varavg| %total
---------------------------------------------------------------
Pair    | 0.50901    | 0.64746    | 0.78591    |  17.2 | 62.16
Neigh   | 0          | 0          | 0          |   0.0 |  0.00
Comm    | 0.10545    | 0.24271    | 0.37997    |  27.9 | 23.30
Output  | 6.8049e-05 | 0.00010937 | 0.00015068 |   0.0 |  0.01
Modify  | 0.13974    | 0.14025    | 0.14077    |   0.1 | 13.47
Other   |            | 0.01102    |            |       |  1.06

Nlocal:             16 ave          19 max          13 min
Histogram: 1 0 0 0 0 0 0 0 0 1
Nghost:            914 ave         917 max         911 min
Histogram: 1 0 0 0 0 0 0 0 0 1
Neighs:         1434.5 ave        2015 max         854 min
Histogram: 1 0 0 0 0 0 0 0 0 1

Total # of neighbors = 2869
Ave neighs/atom = 89.65625
Neighbor list builds = 0
Dangerous builds = 0
Setting up Verlet run ...
  Unit style    : metal
  Current step  : 0
  Time step     : 0.001
Per MPI rank memory allocation (min/avg/max) = 3.605 | 3.605 | 3.605 Mbytes
   Step          Time           Temp          PotEng         KinEng         TotEng        c_mytemp      c_mypress        Volume    
         0   0              996.96203     -101.64373      3.9948912     -97.648835      996.96203      190354.3       465.15778    
      1000   1              920.75907     -101.27735      3.689541      -97.587809      920.75907      197893.85      464.27421    
      2000   2              1129.0351     -102.05939      4.5241164     -97.535275      1129.0351      200392.6       463.73949    
      3000   3              1058.169      -101.44694      4.2401514     -97.206785      1058.169       205714.01      460.88987    
      4000   4              970.61131     -101.06851      3.8893021     -97.179208      970.61131      205026.58      461.12695    
      5000   5              1168.2884     -101.59756      4.6814071     -96.916154      1168.2884      207982.95      459.6001     
      6000   6              1051.4194     -101.35334      4.2131053     -97.140232      1051.4194      198951.99      461.89016    
      7000   7              919.82586     -101.22128      3.6858016     -97.535476      919.82586      192606.3       463.03573    
      8000   8              1025.7626     -101.82641      4.1102971     -97.716108      1025.7626      191072.35      465.27605    
      9000   9              805.18578     -100.87311      3.2264314     -97.646681      805.18578      190881.87      464.99108    
     10000   10             876.26159     -100.58506      3.5112367     -97.073822      876.26159      201990.11      460.34214    
Loop time of 1.02088 on 2 procs for 10000 steps with 32 atoms

Performance: 846.326 ns/day, 0.028 hours/ns, 9795.445 timesteps/s
97.4% CPU use with 2 MPI tasks x 1 OpenMP threads

MPI task timing breakdown:
Section |  min time  |  avg time  |  max time  |%varavg| %total
---------------------------------------------------------------
Pair    | 0.55748    | 0.63146    | 0.70544    |   9.3 | 61.85
Neigh   | 8.3719e-05 | 9.5611e-05 | 0.0001075  |   0.0 |  0.01
Comm    | 0.10395    | 0.17732    | 0.25069    |  17.4 | 17.37
Output  | 8.4219e-05 | 0.00012921 | 0.00017421 |   0.0 |  0.01
Modify  | 0.20105    | 0.20156    | 0.20208    |   0.1 | 19.74
Other   |            | 0.01031    |            |       |  1.01

Nlocal:             16 ave          16 max          16 min
Histogram: 2 0 0 0 0 0 0 0 0 0
Nghost:            914 ave         914 max         914 min
Histogram: 2 0 0 0 0 0 0 0 0 0
Neighs:           1441 ave        1722 max        1160 min
Histogram: 1 0 0 0 0 0 0 0 0 1

Total # of neighbors = 2882
Ave neighs/atom = 90.0625
Neighbor list builds = 2
Dangerous builds = 0
974.179607166386 199753.92257689 461.83218642959 -3.03933917002428
 
*******LOOP # 5*********
 
Setting up Verlet run ...
  Unit style    : metal
  Current step  : 0
  Time step     : 0.001
Per MPI rank memory allocation (min/avg/max) = 3.605 | 3.605 | 3.605 Mbytes
   Step          Time           Temp          PotEng         KinEng         TotEng        c_mytemp      c_mypress        Volume    
         0   0              876.26159     -100.58506      3.5112367     -97.073822      876.26159      201990.11      460.34214    
      1000   1              1032.9263     -101.48762      4.1390025     -97.348622      1032.9263      191096.48      465.21579    
      2000   2              830.03819     -100.69602      3.3260166     -97.370008      830.03819      193088.15      463.91103    
      3000   3              1034.8365     -101.17545      4.1466565     -97.028792      1034.8365      200329.22      461.48867    
      4000   4              1126.8069     -101.39474      4.5151878     -96.879555      1126.8069      208479.71      460.66863    
      5000   5              1165.6977     -102.06892      4.6710261     -97.397891      1165.6977      195171.73      464.77524    
      6000   6              839.63827     -100.8755       3.3644847     -97.511017      839.63827      190070.69      464.89008    
      7000   7              951.99582     -100.90713      3.8147086     -97.092422      951.99582      194146.15      462.44827    
      8000   8              972.79764     -100.5031       3.8980629     -96.605036      972.79764      203522.08      458.65979    
      9000   9              1175.6311     -101.38246      4.7108298     -96.671627      1175.6311      205359.69      459.4983     
     10000   10             1043.5425     -101.36512      4.181542      -97.183578      1043.5425      201191.74      463.7831     
Loop time of 0.948532 on 2 procs for 10000 steps with 32 atoms

Performance: 910.882 ns/day, 0.026 hours/ns, 10542.611 timesteps/s
98.4% CPU use with 2 MPI tasks x 1 OpenMP threads

MPI task timing breakdown:
Section |  min time  |  avg time  |  max time  |%varavg| %total
---------------------------------------------------------------
Pair    | 0.54851    | 0.62167    | 0.69482    |   9.3 | 65.54
Neigh   | 8.4821e-05 | 9.6288e-05 | 0.00010775 |   0.0 |  0.01
Comm    | 0.10551    | 0.17764    | 0.24976    |  17.1 | 18.73
Output  | 9.4719e-05 | 0.00013488 | 0.00017505 |   0.0 |  0.01
Modify  | 0.13803    | 0.13832    | 0.13862    |   0.1 | 14.58
Other   |            | 0.01067    |            |       |  1.13

Nlocal:             16 ave          18 max          14 min
Histogram: 1 0 0 0 0 0 0 0 0 1
Nghost:            914 ave         916 max         912 min
Histogram: 1 0 0 0 0 0 0 0 0 1
Neighs:         1429.5 ave        1818 max        1041 min
Histogram: 1 0 0 0 0 0 0 0 0 1

Total # of neighbors = 2859
Ave neighs/atom = 89.34375
Neighbor list builds = 2
Dangerous builds = 0
Setting up Verlet run ...
  Unit style    : metal
  Current step  : 0
  Time step     : 0.001
Per MPI rank memory allocation (min/avg/max) = 3.605 | 3.605 | 3.605 Mbytes
   Step          Time           Temp          PotEng         KinEng         TotEng        c_mytemp      c_mypress        Volume    
         0   0              1043.5425     -101.36512      4.181542      -97.183578      1043.5425      201191.74      463.7831     
      1000   1              858.11474     -100.53431      3.4385211     -97.09579       858.11474      202561.64      461.85742    
      2000   2              1028.0747     -100.94028      4.1195614     -96.820718      1028.0747      200169.45      459.53639    
      3000   3              999.28682     -101.21316      4.0042067     -97.208956      999.28682      196477.81      463.30006    
      4000   4              1033.04       -100.51363      4.1394581     -96.374171      1033.04        212154.96      456.94607    
      5000   5              1242.6038     -101.96669      4.9791934     -96.987494      1242.6038      203401.43      461.58411    
      6000   6              1068.0158     -101.10133      4.2796081     -96.821719      1068.0158      200902.33      460.41949    
      7000   7              824.26887     -99.990633      3.3028985     -96.687734      824.26887      200692.14      459.8144     
      8000   8              1173.0842     -101.71238      4.7006241     -97.011754      1173.0842      202036.1       461.89925    
      9000   9              923.93959     -101.20288      3.7022855     -97.500597      923.93959      192401.28      465.05597    
     10000   10             1059.533      -101.1849       4.2456171     -96.939286      1059.533       204606.36      461.63266    
Loop time of 0.931395 on 2 procs for 10000 steps with 32 atoms

Performance: 927.641 ns/day, 0.026 hours/ns, 10736.585 timesteps/s
97.6% CPU use with 2 MPI tasks x 1 OpenMP threads

MPI task timing breakdown:
Section |  min time  |  avg time  |  max time  |%varavg| %total
---------------------------------------------------------------
Pair    | 0.5549     | 0.59193    | 0.62895    |   4.8 | 63.55
Neigh   | 0          | 0          | 0          |   0.0 |  0.00
Comm    | 0.10017    | 0.13703    | 0.17388    |  10.0 | 14.71
Output  | 0.00015844 | 0.00034625 | 0.00053406 |   0.0 |  0.04
Modify  | 0.19112    | 0.19215    | 0.19318    |   0.2 | 20.63
Other   |            | 0.009942   |            |       |  1.07

Nlocal:             16 ave          16 max          16 min
Histogram: 2 0 0 0 0 0 0 0 0 0
Nghost:            914 ave         914 max         914 min
Histogram: 2 0 0 0 0 0 0 0 0 0
Neighs:         1420.5 ave        1598 max        1243 min
Histogram: 1 0 0 0 0 0 0 0 0 1

Total # of neighbors = 2841
Ave neighs/atom = 88.78125
Neighbor list builds = 0
Dangerous builds = 0
999.605673797605 199708.27685914 461.479806892637 -3.03155116354361
 
*******LOOP # 6*********
 
Setting up Verlet run ...
  Unit style    : metal
  Current step  : 0
  Time step     : 0.001
Per MPI rank memory allocation (min/avg/max) = 3.605 | 3.605 | 3.605 Mbytes
   Step          Time           Temp          PotEng         KinEng         TotEng        c_mytemp      c_mypress        Volume    
         0   0              1059.533      -101.1849       4.2456171     -96.939286      1059.533       204606.36      461.63266    
      1000   1              920.89466     -100.43451      3.6900843     -96.744429      920.89466      197689.09      461.74536    
      2000   2              898.65365     -100.10391      3.6009632     -96.502942      898.65365      206373.59      458.91083    
      3000   3              993.08096     -100.76803      3.9793394     -96.788691      993.08096      197558.85      461.23808    
      4000   4              1210.1206     -102.26216      4.8490311     -97.41313       1210.1206      195117.8       466.10166    
      5000   5              1050.376      -100.35766      4.2089244     -96.148734      1050.376       206340.77      456.1681     
      6000   6              1058.3792     -101.1197       4.2409937     -96.878705      1058.3792      196381.13      462.17386    
      7000   7              926.25076     -100.28012      3.7115465     -96.568573      926.25076      198186.15      460.46155    
      8000   8              1011.9439     -100.28696      4.0549246     -96.232033      1011.9439      205959.82      457.54475    
      9000   9              976.86338     -100.83317      3.9143545     -96.918817      976.86338      196129.49      462.07277    
     10000   10             983.53624     -100.71013      3.9410932     -96.769039      983.53624      198815.41      461.88579    
Loop time of 0.955056 on 2 procs for 10000 steps with 32 atoms

Performance: 904.659 ns/day, 0.027 hours/ns, 10470.585 timesteps/s
97.5% CPU use with 2 MPI tasks x 1 OpenMP threads

MPI task timing breakdown:
Section |  min time  |  avg time  |  max time  |%varavg| %total
---------------------------------------------------------------
Pair    | 0.5447     | 0.62617    | 0.70763    |  10.3 | 65.56
Neigh   | 0          | 0          | 0          |   0.0 |  0.00
Comm    | 0.10114    | 0.18216    | 0.26318    |  19.0 | 19.07
Output  | 6.9589e-05 | 0.00010954 | 0.00014948 |   0.0 |  0.01
Modify  | 0.13561    | 0.1363     | 0.137      |   0.2 | 14.27
Other   |            | 0.01032    |            |       |  1.08

Nlocal:             16 ave          17 max          15 min
Histogram: 1 0 0 0 0 0 0 0 0 1
Nghost:            914 ave         915 max         913 min
Histogram: 1 0 0 0 0 0 0 0 0 1
Neighs:         1439.5 ave        1808 max        1071 min
Histogram: 1 0 0 0 0 0 0 0 0 1

Total # of neighbors = 2879
Ave neighs/atom = 89.96875
Neighbor list builds = 0
Dangerous builds = 0
Setting up Verlet run ...
  Unit style    : metal
  Current step  : 0
  Time step     : 0.001
Per MPI rank memory allocation (min/avg/max) = 3.605 | 3.605 | 3.605 Mbytes
   Step          Time           Temp          PotEng         KinEng         TotEng        c_mytemp      c_mypress        Volume    
         0   0              983.53624     -100.71013      3.9410932     -96.769039      983.53624      198815.41      461.88579    
      1000   1              1003.9204     -100.68299      4.0227738     -96.660213      1003.9204      203692.65      460.6814     
      2000   2              852.72806     -99.696609      3.4169363     -96.279673      852.72806      193856.75      458.82926    
      3000   3              1086.3644     -100.84681      4.3531323     -96.493681      1086.3644      196160.3       460.8973     
      4000   4              1022.8432     -100.88996      4.0985988     -96.791364      1022.8432      200873.24      462.18035    
      5000   5              915.50122     -100.55606      3.6684724     -96.88759       915.50122      198441.26      462.57547    
      6000   6              1041.7226     -100.98656      4.1742496     -96.812306      1041.7226      199878.74      461.27722    
      7000   7              943.97878     -100.17536      3.7825839     -96.392775      943.97878      198518.06      458.9247     
      8000   8              1116.6075     -100.85484      4.4743182     -96.380526      1116.6075      205394.49      459.04207    
      9000   9              953.85467     -100.29771      3.8221572     -96.475553      953.85467      199354.12      460.38096    
     10000   10             1025.2646     -100.72934      4.1083014     -96.621036      1025.2646      202111.09      460.46543    
Loop time of 1.00964 on 2 procs for 10000 steps with 32 atoms

Performance: 855.747 ns/day, 0.028 hours/ns, 9904.478 timesteps/s
97.9% CPU use with 2 MPI tasks x 1 OpenMP threads

MPI task timing breakdown:
Section |  min time  |  avg time  |  max time  |%varavg| %total
---------------------------------------------------------------
Pair    | 0.59812    | 0.63971    | 0.6813     |   5.2 | 63.36
Neigh   | 0          | 0          | 0          |   0.0 |  0.00
Comm    | 0.1108     | 0.15087    | 0.19093    |  10.3 | 14.94
Output  | 7.0774e-05 | 0.00011204 | 0.0001533  |   0.0 |  0.01
Modify  | 0.20775    | 0.20916    | 0.21056    |   0.3 | 20.72
Other   |            | 0.009797   |            |       |  0.97

Nlocal:             16 ave          20 max          12 min
Histogram: 1 0 0 0 0 0 0 0 0 1
Nghost:            914 ave         918 max         910 min
Histogram: 1 0 0 0 0 0 0 0 0 1
Neighs:           1436 ave        1577 max        1295 min
Histogram: 1 0 0 0 0 0 0 0 0 1

Total # of neighbors = 2872
Ave neighs/atom = 89.75
Neighbor list builds = 0
Dangerous builds = 0
1024.34856494953 199679.613438917 460.942914802314 -3.02091747630201
 
*******LOOP # 7*********
 
Setting up Verlet run ...
  Unit style    : metal
  Current step  : 0
  Time step     : 0.001
Per MPI rank memory allocation (min/avg/max) = 3.605 | 3.605 | 3.605 Mbytes
   Step          Time           Temp          PotEng         KinEng         TotEng        c_mytemp      c_mypress        Volume    
         0   0              1025.2646     -100.72934      4.1083014     -96.621036      1025.2646      202111.09      460.46543    
      1000   1              1268.883      -101.38494      5.0844959     -96.300444      1268.883       206904.17      460.968      
      2000   2              1098.6146     -101.01872      4.4022196     -96.616499      1098.6146      202113.95      461.69527    
      3000   3              1266.7499     -102.21937      5.0759484     -97.143418      1266.7499      195426.13      465.77784    
      4000   4              1047.0284     -100.79143      4.1955102     -96.59592       1047.0284      200126.75      462.20405    
      5000   5              1019.8873     -100.84999      4.086754      -96.763232      1019.8873      196435.42      463.19547    
      6000   6              983.19239     -100.46135      3.9397153     -96.521636      983.19239      203594.75      461.46998    
      7000   7              1089.4757     -100.87619      4.3655993     -96.510587      1089.4757      201330.07      460.94147    
      8000   8              1201.338      -101.39003      4.8138389     -96.576187      1201.338       207216.84      461.30201    
      9000   9              959.11197     -100.54756      3.8432235     -96.704339      959.11197      202201.95      461.9032     
     10000   10             1027.9772     -100.79335      4.1191709     -96.674176      1027.9772      201173.96      461.93335    
Loop time of 0.89365 on 2 procs for 10000 steps with 32 atoms

Performance: 966.822 ns/day, 0.025 hours/ns, 11190.065 timesteps/s
97.9% CPU use with 2 MPI tasks x 1 OpenMP threads

MPI task timing breakdown:
Section |  min time  |  avg time  |  max time  |%varavg| %total
---------------------------------------------------------------
Pair    | 0.58694    | 0.61421    | 0.64148    |   3.5 | 68.73
Neigh   | 9.0231e-05 | 0.00010045 | 0.00011066 |   0.0 |  0.01
Comm    | 0.10329    | 0.13063    | 0.15797    |   7.6 | 14.62
Output  | 0.00017058 | 0.00045146 | 0.00073233 |   0.0 |  0.05
Modify  | 0.13718    | 0.13829    | 0.13941    |   0.3 | 15.48
Other   |            | 0.009959   |            |       |  1.11

Nlocal:             16 ave          17 max          15 min
Histogram: 1 0 0 0 0 0 0 0 0 1
Nghost:            914 ave         915 max         913 min
Histogram: 1 0 0 0 0 0 0 0 0 1
Neighs:           1425 ave        1581 max        1269 min
Histogram: 1 0 0 0 0 0 0 0 0 1

Total # of neighbors = 2850
Ave neighs/atom = 89.0625
Neighbor list builds = 2
Dangerous builds = 0
Setting up Verlet run ...
  Unit style    : metal
  Current step  : 0
  Time step     : 0.001
Per MPI rank memory allocation (min/avg/max) = 3.605 | 3.605 | 3.605 Mbytes
   Step          Time           Temp          PotEng         KinEng         TotEng        c_mytemp      c_mypress        Volume    
         0   0              1027.9772     -100.79335      4.1191709     -96.674176      1027.9772      201173.96      461.93335    
      1000   1              1202.5252     -101.57441      4.8185959     -96.755811      1202.5252      201954.07      462.06908    
      2000   2              888.29515     -100.03878      3.559456      -96.479323      888.29515      202863.54      460.15805    
      3000   3              1027.4961     -101.12165      4.117243      -97.004404      1027.4961      190670.22      465.28943    
      4000   4              1004.87       -100.3955       4.0265788     -96.368919      1004.87        209335.01      459.34793    
      5000   5              1076.9911     -100.68449      4.315573      -96.368916      1076.9911      202770.75      459.94759    
      6000   6              1080.7966     -101.05103      4.3308219     -96.720206      1080.7966      193923.94      463.93251    
      7000   7              1051.0109     -100.93432      4.2114683     -96.722854      1051.0109      197102.09      463.28887    
      8000   8              894.52911     -100.48399      3.5844359     -96.89955       894.52911      192739.77      463.39307    
      9000   9              1186.18       -100.99462      4.7530999     -96.241522      1186.18        206233.01      459.70881    
     10000   10             956.63154     -99.893833      3.8332843     -96.060549      956.63154      199571.29      457.52489    
Loop time of 0.958224 on 2 procs for 10000 steps with 32 atoms

Performance: 901.669 ns/day, 0.027 hours/ns, 10435.978 timesteps/s
97.1% CPU use with 2 MPI tasks x 1 OpenMP threads

MPI task timing breakdown:
Section |  min time  |  avg time  |  max time  |%varavg| %total
---------------------------------------------------------------
Pair    | 0.58369    | 0.61184    | 0.63999    |   3.6 | 63.85
Neigh   | 0.00032257 | 0.00036245 | 0.00040234 |   0.0 |  0.04
Comm    | 0.10712    | 0.13527    | 0.16342    |   7.7 | 14.12
Output  | 0.00010108 | 0.00013845 | 0.00017581 |   0.0 |  0.01
Modify  | 0.20012    | 0.20073    | 0.20135    |   0.1 | 20.95
Other   |            | 0.00988    |            |       |  1.03

Nlocal:             16 ave          18 max          14 min
Histogram: 1 0 0 0 0 0 0 0 0 1
Nghost:            914 ave         916 max         912 min
Histogram: 1 0 0 0 0 0 0 0 0 1
Neighs:         1445.5 ave        1495 max        1396 min
Histogram: 1 0 0 0 0 0 0 0 0 1

Total # of neighbors = 2891
Ave neighs/atom = 90.34375
Neighbor list builds = 7
Dangerous builds = 0
1048.57816550199 199623.226184159 461.85302922225 -3.01901833963285
 
*******LOOP # 8*********
 
Setting up Verlet run ...
  Unit style    : metal
  Current step  : 0
  Time step     : 0.001
Per MPI rank memory allocation (min/avg/max) = 3.605 | 3.605 | 3.605 Mbytes
   Step          Time           Temp          PotEng         KinEng         TotEng        c_mytemp      c_mypress        Volume    
         0   0              956.63154     -99.893833      3.8332843     -96.060549      956.63154      199571.29      457.52489    
      1000   1              1014.6044     -100.2897       4.0655854     -96.224113      1014.6044      202707.4       460.31979    
      2000   2              907.4796      -99.747297      3.6363293     -96.110967      907.4796       198622.62      459.9674     
      3000   3              1285.0733     -101.91705      5.1493714     -96.767674      1285.0733      196897.05      463.71644    
      4000   4              1141.988      -101.7639       4.5760195     -97.187883      1141.988       191128.64      467.58517    
      5000   5              1147.7049     -101.2535       4.5989277     -96.654576      1147.7049      200260.93      463.5762     
      6000   6              1175.1552     -101.06202      4.7089225     -96.353095      1175.1552      203414.21      462.70089    
      7000   7              1175.4656     -101.05691      4.7101667     -96.346747      1175.4656      197270.84      462.67201    
      8000   8              1360.6581     -101.89591      5.4522448     -96.44367       1360.6581      199606.4       462.51466    
      9000   9              1154.1746     -100.72704      4.6248521     -96.102191      1154.1746      206030.95      460.08498    
     10000   10             907.45207     -100.38346      3.636219      -96.747245      907.45207      191016.55      463.95749    
Loop time of 0.872012 on 2 procs for 10000 steps with 32 atoms

Performance: 990.812 ns/day, 0.024 hours/ns, 11467.735 timesteps/s
97.9% CPU use with 2 MPI tasks x 1 OpenMP threads

MPI task timing breakdown:
Section |  min time  |  avg time  |  max time  |%varavg| %total
---------------------------------------------------------------
Pair    | 0.59454    | 0.59854    | 0.60254    |   0.5 | 68.64
Neigh   | 0.00020968 | 0.00024033 | 0.00027098 |   0.0 |  0.03
Comm    | 0.12419    | 0.12773    | 0.13127    |   1.0 | 14.65
Output  | 8.6263e-05 | 0.00012685 | 0.00016744 |   0.0 |  0.01
Modify  | 0.13511    | 0.1359     | 0.13669    |   0.2 | 15.58
Other   |            | 0.009479   |            |       |  1.09

Nlocal:             16 ave          16 max          16 min
Histogram: 2 0 0 0 0 0 0 0 0 0
Nghost:            914 ave         914 max         914 min
Histogram: 2 0 0 0 0 0 0 0 0 0
Neighs:         1430.5 ave        1668 max        1193 min
Histogram: 1 0 0 0 0 0 0 0 0 1

Total # of neighbors = 2861
Ave neighs/atom = 89.40625
Neighbor list builds = 5
Dangerous builds = 0
Setting up Verlet run ...
  Unit style    : metal
  Current step  : 0
  Time step     : 0.001
Per MPI rank memory allocation (min/avg/max) = 3.605 | 3.605 | 3.605 Mbytes
   Step          Time           Temp          PotEng         KinEng         TotEng        c_mytemp      c_mypress        Volume    
         0   0              907.45207     -100.38346      3.636219      -96.747245      907.45207      191016.55      463.95749    
      1000   1              951.29896     -100.81146      3.8119163     -96.999543      951.29896      190090.37      466.39383    
      2000   2              1136.014      -100.57037      4.5520813     -96.018286      1136.014       208206.72      458.70244    
      3000   3              1006.1715     -100.31917      4.031794      -96.287378      1006.1715      197083.87      461.09917    
      4000   4              997.00919     -100.85833      3.9950801     -96.86325       997.00919      192826.43      465.10633    
      5000   5              1398.8514     -102.2038       5.6052876     -96.598513      1398.8514      199112.17      463.71487    
      6000   6              1215.4552     -101.48981      4.8704075     -96.619402      1215.4552      197186.17      464.06097    
      7000   7              1252.0977     -101.54079      5.0172364     -96.523558      1252.0977      198827.21      462.57908    
      8000   8              1119.9327     -100.81361      4.4876426     -96.325966      1119.9327      197695.66      461.13631    
      9000   9              997.04062     -99.981488      3.9952061     -95.986282      997.04062      205826.19      459.24379    
     10000   10             1151.4796     -100.94871      4.614053      -96.334656      1151.4796      201580.05      461.59757    
Loop time of 0.887241 on 2 procs for 10000 steps with 32 atoms

Performance: 973.805 ns/day, 0.025 hours/ns, 11270.894 timesteps/s
97.6% CPU use with 2 MPI tasks x 1 OpenMP threads

MPI task timing breakdown:
Section |  min time  |  avg time  |  max time  |%varavg| %total
---------------------------------------------------------------
Pair    | 0.57915    | 0.5811     | 0.58306    |   0.3 | 65.50
Neigh   | 0          | 0          | 0          |   0.0 |  0.00
Comm    | 0.10312    | 0.10439    | 0.10566    |   0.4 | 11.77
Output  | 0.00014763 | 0.00047558 | 0.00080353 |   0.0 |  0.05
Modify  | 0.19069    | 0.19208    | 0.19348    |   0.3 | 21.65
Other   |            | 0.009187   |            |       |  1.04

Nlocal:             16 ave          18 max          14 min
Histogram: 1 0 0 0 0 0 0 0 0 1
Nghost:            914 ave         916 max         912 min
Histogram: 1 0 0 0 0 0 0 0 0 1
Neighs:         1427.5 ave        1470 max        1385 min
Histogram: 1 0 0 0 0 0 0 0 0 1

Total # of neighbors = 2855
Ave neighs/atom = 89.21875
Neighbor list builds = 0
Dangerous builds = 0
1074.2412867014 199716.398872801 462.333979499204 -3.01495774739551
 
*******LOOP # 9*********
 
Setting up Verlet run ...
  Unit style    : metal
  Current step  : 0
  Time step     : 0.001
Per MPI rank memory allocation (min/avg/max) = 3.605 | 3.605 | 3.605 Mbytes
   Step          Time           Temp          PotEng         KinEng         TotEng        c_mytemp      c_mypress        Volume    
         0   0              1151.4796     -100.94871      4.614053      -96.334656      1151.4796      201580.05      461.59757    
      1000   1              1131.1642     -100.64162      4.5326478     -96.108972      1131.1642      205109.61      462.09432    
      2000   2              1120.6741     -101.10165      4.4906133     -96.611033      1120.6741      194212.18      465.67977    
      3000   3              1152.5452     -100.4102       4.6183229     -95.791875      1152.5452      205009.19      458.13039    
      4000   4              1100.5015     -100.57851      4.4097806     -96.168726      1100.5015      196734.45      462.09317    
      5000   5              996.96453     -100.73191      3.9949012     -96.737008      996.96453      192363.66      465.78865    
      6000   6              1079.3521     -100.4684       4.3250333     -96.143367      1079.3521      198727.48      460.8094     
      7000   7              985.77053     -100.13363      3.9500461     -96.183586      985.77053      194058.97      461.90497    
      8000   8              1093.5034     -100.78734      4.3817387     -96.405601      1093.5034      193750.41      463.71981    
      9000   9              1176.3816     -100.85302      4.7138369     -96.139181      1176.3816      205576.1       461.79817    
     10000   10             1287.1546     -101.59451      5.1577117     -96.436802      1287.1546      198310.77      463.77759    
Loop time of 1.01989 on 2 procs for 10000 steps with 32 atoms

Performance: 847.147 ns/day, 0.028 hours/ns, 9804.939 timesteps/s
97.7% CPU use with 2 MPI tasks x 1 OpenMP threads

MPI task timing breakdown:
Section |  min time  |  avg time  |  max time  |%varavg| %total
---------------------------------------------------------------
Pair    | 0.57585    | 0.66452    | 0.75319    |  10.9 | 65.16
Neigh   | 0.00031987 | 0.00036533 | 0.0004108  |   0.0 |  0.04
Comm    | 0.11084    | 0.19855    | 0.28627    |  19.7 | 19.47
Output  | 0.00015722 | 0.00043246 | 0.00070771 |   0.0 |  0.04
Modify  | 0.14369    | 0.14431    | 0.14493    |   0.2 | 14.15
Other   |            | 0.01171    |            |       |  1.15

Nlocal:             16 ave          18 max          14 min
Histogram: 1 0 0 0 0 0 0 0 0 1
Nghost:            914 ave         916 max         912 min
Histogram: 1 0 0 0 0 0 0 0 0 1
Neighs:         1435.5 ave        1491 max        1380 min
Histogram: 1 0 0 0 0 0 0 0 0 1

Total # of neighbors = 2871
Ave neighs/atom = 89.71875
Neighbor list builds = 7
Dangerous builds = 0
Setting up Verlet run ...
  Unit style    : metal
  Current step  : 0
  Time step     : 0.001
Per MPI rank memory allocation (min/avg/max) = 3.605 | 3.605 | 3.605 Mbytes
   Step          Time           Temp          PotEng         KinEng         TotEng        c_mytemp      c_mypress        Volume    
         0   0              1287.1546     -101.59451      5.1577117     -96.436802      1287.1546      198310.77      463.77759    
      1000   1              1081.2605     -100.44735      4.3326804     -96.114666      1081.2605      202555.99      460.8859     
      2000   2              1110.3234     -100.69929      4.4491376     -96.250152      1110.3234      200852.41      462.46304    
      3000   3              900.88491     -100.18664      3.6099039     -96.576733      900.88491      187979.58      464.59847    
      4000   4              1108.7722     -100.25747      4.4429219     -95.814552      1108.7722      202505.92      459.97587    
      5000   5              1022.1334     -100.50919      4.0957545     -96.413439      1022.1334      191430.28      463.8604     
      6000   6              807.57343     -99.109974      3.2359988     -95.873975      807.57343      197648.7       459.61193    
      7000   7              1135.7386     -101.20061      4.5509776     -96.649637      1135.7386      189231.29      465.6013     
      8000   8              1035.8262     -100.81764      4.1506224     -96.667016      1035.8262      199514.29      465.7567     
      9000   9              1020.6537     -100.25352      4.0898252     -96.163694      1020.6537      202019.06      462.59551    
     10000   10             872.30909     -100.02504      3.4953988     -96.529639      872.30909      193225.92      464.15775    
Loop time of 1.02814 on 2 procs for 10000 steps with 32 atoms

Performance: 840.350 ns/day, 0.029 hours/ns, 9726.278 timesteps/s
97.9% CPU use with 2 MPI tasks x 1 OpenMP threads

MPI task timing breakdown:
Section |  min time  |  avg time  |  max time  |%varavg| %total
---------------------------------------------------------------
Pair    | 0.58278    | 0.64582    | 0.70885    |   7.8 | 62.81
Neigh   | 0          | 0          | 0          |   0.0 |  0.00
Comm    | 0.10501    | 0.16741    | 0.22981    |  15.3 | 16.28
Output  | 7.9458e-05 | 0.00011949 | 0.00015952 |   0.0 |  0.01
Modify  | 0.20296    | 0.20372    | 0.20448    |   0.2 | 19.81
Other   |            | 0.01107    |            |       |  1.08

Nlocal:             16 ave          17 max          15 min
Histogram: 1 0 0 0 0 0 0 0 0 1
Nghost:            914 ave         915 max         913 min
Histogram: 1 0 0 0 0 0 0 0 0 1
Neighs:           1428 ave        1732 max        1124 min
Histogram: 1 0 0 0 0 0 0 0 0 1

Total # of neighbors = 2856
Ave neighs/atom = 89.25
Neighbor list builds = 0
Dangerous builds = 0
1098.63092741986 199665.189343351 462.370791702752 -3.00710845031353
 
*******LOOP # 10*********
 
Setting up Verlet run ...
  Unit style    : metal
  Current step  : 0
  Time step     : 0.001
Per MPI rank memory allocation (min/avg/max) = 3.605 | 3.605 | 3.605 Mbytes
   Step          Time           Temp          PotEng         KinEng         TotEng        c_mytemp      c_mypress        Volume    
         0   0              872.30909     -100.02504      3.4953988     -96.529639      872.30909      193225.92      464.15775    
      1000   1              1205.7081     -100.64289      4.83135       -95.811538      1205.7081      205798.18      461.07951    
      2000   2              1029.4431     -100.18137      4.1250449     -96.056322      1029.4431      202516.03      462.17581    
      3000   3              1182.9691     -100.42678      4.7402335     -95.686549      1182.9691      211203.51      459.59533    
      4000   4              962.31097     -100.20977      3.8560421     -96.353727      962.31097      192143.41      464.53172    
      5000   5              1062.3525     -100.40351      4.2569152     -96.146599      1062.3525      199440.28      464.13947    
      6000   6              1177.3549     -100.31271      4.7177368     -95.594968      1177.3549      204084.57      459.10473    
      7000   7              958.38973     -99.784201      3.8403295     -95.943872      958.38973      199838.39      461.38886    
      8000   8              1052.2332     -100.15216      4.2163662     -95.935798      1052.2332      193821.8       462.16428    
      9000   9              1007.6507     -100.04471      4.0377213     -96.006988      1007.6507      200663.06      461.87964    
     10000   10             955.52871     -99.583673      3.8288652     -95.754808      955.52871      203003.32      460.78993    
Loop time of 0.929398 on 2 procs for 10000 steps with 32 atoms

Performance: 929.634 ns/day, 0.026 hours/ns, 10759.656 timesteps/s
97.8% CPU use with 2 MPI tasks x 1 OpenMP threads

MPI task timing breakdown:
Section |  min time  |  avg time  |  max time  |%varavg| %total
---------------------------------------------------------------
Pair    | 0.5696     | 0.62328    | 0.67696    |   6.8 | 67.06
Neigh   | 8.4318e-05 | 9.5695e-05 | 0.00010707 |   0.0 |  0.01
Comm    | 0.10502    | 0.15855    | 0.21207    |  13.4 | 17.06
Output  | 7.9048e-05 | 0.00011984 | 0.00016063 |   0.0 |  0.01
Modify  | 0.13653    | 0.13727    | 0.138      |   0.2 | 14.77
Other   |            | 0.01009    |            |       |  1.09

Nlocal:             16 ave          17 max          15 min
Histogram: 1 0 0 0 0 0 0 0 0 1
Nghost:            914 ave         915 max         913 min
Histogram: 1 0 0 0 0 0 0 0 0 1
Neighs:           1442 ave        1586 max        1298 min
Histogram: 1 0 0 0 0 0 0 0 0 1

Total # of neighbors = 2884
Ave neighs/atom = 90.125
Neighbor list builds = 2
Dangerous builds = 0
Setting up Verlet run ...
  Unit style    : metal
  Current step  : 0
  Time step     : 0.001
Per MPI rank memory allocation (min/avg/max) = 3.605 | 3.605 | 3.605 Mbytes
   Step          Time           Temp          PotEng         KinEng         TotEng        c_mytemp      c_mypress        Volume    
         0   0              955.52871     -99.583673      3.8288652     -95.754808      955.52871      203003.32      460.78993    
      1000   1              1139.8915     -100.92913      4.5676186     -96.361515      1139.8915      191979.22      464.973      
      2000   2              1031.6747     -99.810682      4.1339869     -95.676695      1031.6747      205498.5       460.20086    
      3000   3              960.00041     -99.932976      3.8467835     -96.086193      960.00041      196720.87      462.68537    
      4000   4              1172.048      -100.25297      4.6964718     -95.556498      1172.048       211888.11      457.87867    
      5000   5              965.58664     -100.0284       3.869168      -96.159233      965.58664      198014.04      462.94087    
      6000   6              992.43334     -100.01942      3.9767444     -96.042679      992.43334      197352.16      462.97641    
      7000   7              1032.9765     -100.1433       4.1392034     -96.004094      1032.9765      193189.49      462.2393     
      8000   8              1440.7251     -101.2892       5.7730785     -95.516119      1440.7251      212582.71      458.62128    
      9000   9              1134.4115     -100.98596      4.5456601     -96.440304      1134.4115      194599.52      466.04769    
     10000   10             1101.5959     -100.59175      4.4141657     -96.177584      1101.5959      201065.08      463.33879    
Loop time of 0.984785 on 2 procs for 10000 steps with 32 atoms

Performance: 877.349 ns/day, 0.027 hours/ns, 10154.499 timesteps/s
97.4% CPU use with 2 MPI tasks x 1 OpenMP threads

MPI task timing breakdown:
Section |  min time  |  avg time  |  max time  |%varavg| %total
---------------------------------------------------------------
Pair    | 0.59004    | 0.62816    | 0.66628    |   4.8 | 63.79
Neigh   | 0.0001294  | 0.00014895 | 0.0001685  |   0.0 |  0.02
Comm    | 0.10565    | 0.14348    | 0.18131    |  10.0 | 14.57
Output  | 0.00015953 | 0.00037258 | 0.00058564 |   0.0 |  0.04
Modify  | 0.20158    | 0.20244    | 0.20331    |   0.2 | 20.56
Other   |            | 0.01018    |            |       |  1.03

Nlocal:             16 ave          17 max          15 min
Histogram: 1 0 0 0 0 0 0 0 0 1
Nghost:            914 ave         915 max         913 min
Histogram: 1 0 0 0 0 0 0 0 0 1
Neighs:         1446.5 ave        1584 max        1309 min
Histogram: 1 0 0 0 0 0 0 0 0 1

Total # of neighbors = 2893
Ave neighs/atom = 90.40625
Neighbor list builds = 3
Dangerous builds = 0
1124.20319776089 199693.017567586 462.169974009848 -2.99976251051333
 
*******LOOP # 11*********
 
Setting up Verlet run ...
  Unit style    : metal
  Current step  : 0
  Time step     : 0.001
Per MPI rank memory allocation (min/avg/max) = 3.605 | 3.605 | 3.605 Mbytes
   Step          Time           Temp          PotEng         KinEng         TotEng        c_mytemp      c_mypress        Volume    
         0   0              1101.5959     -100.59175      4.4141657     -96.177584      1101.5959      201065.08      463.33879    
      1000   1              1052.9487     -99.886996      4.2192332     -95.667763      1052.9487      202718.66      461.62879    
      2000   2              925.71512     -99.882345      3.7094002     -96.172945      925.71512      195646.35      465.364      
      3000   3              991.84593     -99.714316      3.9743906     -95.739925      991.84593      207799.92      461.04911    
      4000   4              1060.9728     -100.42298      4.2513863     -96.171594      1060.9728      195876.82      465.43201    
      5000   5              1260.4503     -100.62284      5.0507057     -95.57213       1260.4503      200530.65      460.48739    
      6000   6              934.93086     -99.217617      3.7463282     -95.471288      934.93086      193983.41      460.43238    
      7000   7              1145.4355     -100.48802      4.5898338     -95.898182      1145.4355      198964.57      463.0747     
      8000   8              1442.4381     -101.22971      5.7799424     -95.449767      1442.4381      203381.04      460.18184    
      9000   9              1450.5882     -101.17453      5.8126004     -95.361931      1450.5882      210244.47      459.8012     
     10000   10             1121.0749     -100.6688       4.4922192     -96.176577      1121.0749      196631.13      464.55916    
Loop time of 0.855957 on 2 procs for 10000 steps with 32 atoms

Performance: 1009.396 ns/day, 0.024 hours/ns, 11682.829 timesteps/s
97.5% CPU use with 2 MPI tasks x 1 OpenMP threads

MPI task timing breakdown:
Section |  min time  |  avg time  |  max time  |%varavg| %total
---------------------------------------------------------------
Pair    | 0.55112    | 0.58501    | 0.6189     |   4.4 | 68.35
Neigh   | 0          | 0          | 0          |   0.0 |  0.00
Comm    | 0.098598   | 0.1326     | 0.16661    |   9.3 | 15.49
Output  | 7.2416e-05 | 0.00010788 | 0.00014335 |   0.0 |  0.01
Modify  | 0.12781    | 0.1287     | 0.12958    |   0.2 | 15.04
Other   |            | 0.009543   |            |       |  1.11

Nlocal:             16 ave          17 max          15 min
Histogram: 1 0 0 0 0 0 0 0 0 1
Nghost:            914 ave         915 max         913 min
Histogram: 1 0 0 0 0 0 0 0 0 1
Neighs:         1434.5 ave        1629 max        1240 min
Histogram: 1 0 0 0 0 0 0 0 0 1

Total # of neighbors = 2869
Ave neighs/atom = 89.65625
Neighbor list builds = 0
Dangerous builds = 0
Setting up Verlet run ...
  Unit style    : metal
  Current step  : 0
  Time step     : 0.001
Per MPI rank memory allocation (min/avg/max) = 3.605 | 3.605 | 3.605 Mbytes
   Step          Time           Temp          PotEng         KinEng         TotEng        c_mytemp      c_mypress        Volume    
         0   0              1121.0749     -100.6688       4.4922192     -96.176577      1121.0749      196631.13      464.55916    
      1000   1              1016.2849     -99.386777      4.0723193     -95.314457      1016.2849      208150.39      458.62958    
      2000   2              992.17492     -99.878007      3.9757089     -95.902298      992.17492      191652.92      463.69297    
      3000   3              918.06642     -99.492655      3.6787514     -95.813903      918.06642      201018.77      461.71857    
      4000   4              922.05282     -99.800357      3.6947251     -96.105632      922.05282      188644.07      466.17851    
      5000   5              1341.5444     -101.22947      5.375655      -95.853811      1341.5444      194531.03      463.09724    
      6000   6              1006.9222     -99.405816      4.0348022     -95.371013      1006.9222      209654.72      459.44191    
      7000   7              1234.6741     -100.45528      4.9474186     -95.507866      1234.6741      201217.13      460.4829     
      8000   8              1134.5378     -100.01442      4.546166      -95.468254      1134.5378      200440.02      461.51762    
      9000   9              1173          -100.13552      4.7002866     -95.435235      1173           200680.65      460.61863    
     10000   10             920.87926     -99.388725      3.6900226     -95.698702      920.87926      195566.77      461.36953    
Loop time of 0.997434 on 2 procs for 10000 steps with 32 atoms

Performance: 866.223 ns/day, 0.028 hours/ns, 10025.729 timesteps/s
98.1% CPU use with 2 MPI tasks x 1 OpenMP threads

MPI task timing breakdown:
Section |  min time  |  avg time  |  max time  |%varavg| %total
---------------------------------------------------------------
Pair    | 0.57011    | 0.62713    | 0.68415    |   7.2 | 62.87
Neigh   | 0.00038692 | 0.00043548 | 0.00048404 |   0.0 |  0.04
Comm    | 0.10605    | 0.16242    | 0.21879    |  14.0 | 16.28
Output  | 7.4462e-05 | 0.00011312 | 0.00015179 |   0.0 |  0.01
Modify  | 0.19628    | 0.19688    | 0.19749    |   0.1 | 19.74
Other   |            | 0.01045    |            |       |  1.05

Nlocal:             16 ave          17 max          15 min
Histogram: 1 0 0 0 0 0 0 0 0 1
Nghost:            914 ave         915 max         913 min
Histogram: 1 0 0 0 0 0 0 0 0 1
Neighs:           1427 ave        1792 max        1062 min
Histogram: 1 0 0 0 0 0 0 0 0 1

Total # of neighbors = 2854
Ave neighs/atom = 89.1875
Neighbor list builds = 9
Dangerous builds = 0
1149.14791799669 199657.704552816 461.86657132675 -2.99070658823825
 
*******LOOP # 12*********
 
Setting up Verlet run ...
  Unit style    : metal
  Current step  : 0
  Time step     : 0.001
Per MPI rank memory allocation (min/avg/max) = 3.605 | 3.605 | 3.605 Mbytes
   Step          Time           Temp          PotEng         KinEng         TotEng        c_mytemp      c_mypress        Volume    
         0   0              920.87926     -99.388725      3.6900226     -95.698702      920.87926      195566.77      461.36953    
      1000   1              1150.6726     -100.14796      4.6108194     -95.537144      1150.6726      201566.44      461.09904    
      2000   2              1177.0782     -99.727364      4.7166284     -95.010735      1177.0782      210179.86      459.20329    
      3000   3              1183.4581     -99.16203       4.7421927     -94.419837      1183.4581      207077.37      454.42387    
      4000   4              1328.1042     -100.28808      5.3217994     -94.966278      1328.1042      209566.16      458.09017    
      5000   5              987.91073     -99.294814      3.958622      -95.336192      987.91073      195435.49      460.09664    
      6000   6              1135.6084     -100.50637      4.5504559     -95.955913      1135.6084      193998.15      465.71387    
      7000   7              1139.5878     -100.06286      4.5664018     -95.496456      1139.5878      204615.43      461.93505    
      8000   8              1251.8166     -99.842544      5.0161098     -94.826434      1251.8166      209090.6       457.5783     
      9000   9              1205.3668     -100.53914      4.8299825     -95.709157      1205.3668      197519.76      464.47596    
     10000   10             1296.6105     -100.78566      5.1956019     -95.590058      1296.6105      200204.14      463.20546    
Loop time of 0.92789 on 2 procs for 10000 steps with 32 atoms

Performance: 931.145 ns/day, 0.026 hours/ns, 10777.139 timesteps/s
97.7% CPU use with 2 MPI tasks x 1 OpenMP threads

MPI task timing breakdown:
Section |  min time  |  avg time  |  max time  |%varavg| %total
---------------------------------------------------------------
Pair    | 0.58954    | 0.62654    | 0.66354    |   4.7 | 67.52
Neigh   | 0.00098212 | 0.0011108  | 0.0012395  |   0.4 |  0.12
Comm    | 0.1132     | 0.1502     | 0.1872     |   9.5 | 16.19
Output  | 0.00015281 | 0.000428   | 0.0007032  |   0.0 |  0.05
Modify  | 0.13854    | 0.13941    | 0.14028    |   0.2 | 15.02
Other   |            | 0.01021    |            |       |  1.10

Nlocal:             16 ave          17 max          15 min
Histogram: 1 0 0 0 0 0 0 0 0 1
Nghost:            914 ave         915 max         913 min
Histogram: 1 0 0 0 0 0 0 0 0 1
Neighs:           1436 ave        1539 max        1333 min
Histogram: 1 0 0 0 0 0 0 0 0 1

Total # of neighbors = 2872
Ave neighs/atom = 89.75
Neighbor list builds = 22
Dangerous builds = 0
Setting up Verlet run ...
  Unit style    : metal
  Current step  : 0
  Time step     : 0.001
Per MPI rank memory allocation (min/avg/max) = 3.605 | 3.605 | 3.605 Mbytes
   Step          Time           Temp          PotEng         KinEng         TotEng        c_mytemp      c_mypress        Volume    
         0   0              1296.6105     -100.78566      5.1956019     -95.590058      1296.6105      200204.14      463.20546    
      1000   1              886.92176     -99.231712      3.5539527     -95.67776       886.92176      198603.48      462.598      
      2000   2              1191.4045     -100.22278      4.7740347     -95.448746      1191.4045      197275.8       461.09975    
      3000   3              1105.0328     -99.972276      4.4279379     -95.544338      1105.0328      193999.3       461.83136    
      4000   4              1217.8348     -100.40198      4.8799424     -95.522036      1217.8348      197702.23      460.582      
      5000   5              1007.3726     -99.260873      4.0366068     -95.224266      1007.3726      202072.57      458.99152    
      6000   6              1292.1564     -100.96589      5.1777539     -95.78814       1292.1564      194505.03      463.9655     
      7000   7              1181.0445     -100.0063       4.7325216     -95.273779      1181.0445      212771.79      458.90542    
      8000   8              937.92863     -99.802303      3.7583405     -96.043963      937.92863      193822.68      464.9622     
      9000   9              1196.9514     -99.988031      4.7962613     -95.19177       1196.9514      208680.98      458.60208    
     10000   10             1125.6189     -99.939852      4.5104276     -95.429424      1125.6189      199056.48      460.83534    
Loop time of 0.997916 on 2 procs for 10000 steps with 32 atoms

Performance: 865.804 ns/day, 0.028 hours/ns, 10020.882 timesteps/s
97.8% CPU use with 2 MPI tasks x 1 OpenMP threads

MPI task timing breakdown:
Section |  min time  |  avg time  |  max time  |%varavg| %total
---------------------------------------------------------------
Pair    | 0.5513     | 0.61962    | 0.68794    |   8.7 | 62.09
Neigh   | 0.00028273 | 0.00034245 | 0.00040217 |   0.0 |  0.03
Comm    | 0.10417    | 0.17163    | 0.23909    |  16.3 | 17.20
Output  | 7.6877e-05 | 0.00011632 | 0.00015576 |   0.0 |  0.01
Modify  | 0.19598    | 0.19608    | 0.19617    |   0.0 | 19.65
Other   |            | 0.01013    |            |       |  1.02

Nlocal:             16 ave          20 max          12 min
Histogram: 1 0 0 0 0 0 0 0 0 1
Nghost:            914 ave         918 max         910 min
Histogram: 1 0 0 0 0 0 0 0 0 1
Neighs:         1446.5 ave        2002 max         891 min
Histogram: 1 0 0 0 0 0 0 0 0 1

Total # of neighbors = 2893
Ave neighs/atom = 90.40625
Neighbor list builds = 7
Dangerous builds = 0
1174.28507402403 199716.41503979 461.779294727973 -2.98544076901866
 
*******LOOP # 13*********
 
Setting up Verlet run ...
  Unit style    : metal
  Current step  : 0
  Time step     : 0.001
Per MPI rank memory allocation (min/avg/max) = 3.605 | 3.605 | 3.605 Mbytes
   Step          Time           Temp          PotEng         KinEng         TotEng        c_mytemp      c_mypress        Volume    
         0   0              1125.6189     -99.939852      4.5104276     -95.429424      1125.6189      199056.48      460.83534    
      1000   1              1192.2416     -100.19739      4.777389      -95.420001      1192.2416      194451.69      462.54527    
      2000   2              1310.148      -100.22147      5.2498477     -94.971625      1310.148       202031.84      458.57727    
      3000   3              1132.346      -99.717688      4.5373836     -95.180304      1132.346       192820.1       461.11073    
      4000   4              1416.355      -100.42672      5.6754257     -94.751296      1416.355       205294.36      458.42023    
      5000   5              1166.8831     -99.239784      4.6757757     -94.564009      1166.8831      205970.99      455.93412    
      6000   6              1326.8745     -101.08803      5.3168716     -95.771161      1326.8745      193152.44      466.07808    
      7000   7              1249.6035     -100.1283       5.0072416     -95.121055      1249.6035      201536.88      460.97312    
      8000   8              1201.248      -99.677775      4.813478      -94.864297      1201.248       205337.75      459.05868    
      9000   9              1412.1511     -100.88598      5.6585803     -95.227396      1412.1511      196754.73      462.25201    
     10000   10             1041.4567     -99.706729      4.173184      -95.533545      1041.4567      194951.82      464.2499     
Loop time of 0.892581 on 2 procs for 10000 steps with 32 atoms

Performance: 967.979 ns/day, 0.025 hours/ns, 11203.460 timesteps/s
97.3% CPU use with 2 MPI tasks x 1 OpenMP threads

MPI task timing breakdown:
Section |  min time  |  avg time  |  max time  |%varavg| %total
---------------------------------------------------------------
Pair    | 0.55808    | 0.6028     | 0.64751    |   5.8 | 67.53
Neigh   | 0.00072795 | 0.00084261 | 0.00095727 |   0.0 |  0.09
Comm    | 0.10161    | 0.14623    | 0.19085    |  11.7 | 16.38
Output  | 7.7635e-05 | 0.00011656 | 0.00015548 |   0.0 |  0.01
Modify  | 0.13199    | 0.13272    | 0.13344    |   0.2 | 14.87
Other   |            | 0.00988    |            |       |  1.11

Nlocal:             16 ave          19 max          13 min
Histogram: 1 0 0 0 0 0 0 0 0 1
Nghost:            914 ave         917 max         911 min
Histogram: 1 0 0 0 0 0 0 0 0 1
Neighs:           1426 ave        1922 max         930 min
Histogram: 1 0 0 0 0 0 0 0 0 1

Total # of neighbors = 2852
Ave neighs/atom = 89.125
Neighbor list builds = 18
Dangerous builds = 0
Setting up Verlet run ...
  Unit style    : metal
  Current step  : 0
  Time step     : 0.001
Per MPI rank memory allocation (min/avg/max) = 3.605 | 3.605 | 3.605 Mbytes
   Step          Time           Temp          PotEng         KinEng         TotEng        c_mytemp      c_mypress        Volume    
         0   0              1041.4567     -99.706729      4.173184      -95.533545      1041.4567      194951.82      464.2499     
      1000   1              958.52117     -99.177382      3.8408561     -95.336526      958.52117      207339         461.37711    
      2000   2              1146.3592     -100.16783      4.5935351     -95.574294      1146.3592      196091.24      463.78688    
      3000   3              1292.0073     -100.89598      5.1771566     -95.718822      1292.0073      192893.97      466.52325    
      4000   4              1151.0901     -99.653328      4.6124924     -95.040836      1151.0901      200949.56      460.10888    
      5000   5              1341.0198     -100.23275      5.3735529     -94.859201      1341.0198      210496.8       458.74708    
      6000   6              1217.3403     -100.1205       4.8779612     -95.242538      1217.3403      198659.5       461.7114     
      7000   7              1180.0833     -100.45827      4.7286697     -95.7296        1180.0833      192178.82      463.87263    
      8000   8              1381.0873     -100.70541      5.5341061     -95.171302      1381.0873      215752.6       461.32941    
      9000   9              1066.2464     -99.32101       4.272518      -95.048492      1066.2464      197576.98      459.88893    
     10000   10             1256.1271     -101.01377      5.0333825     -95.980386      1256.1271      188180.05      467.1888     
Loop time of 0.967841 on 2 procs for 10000 steps with 32 atoms

Performance: 892.709 ns/day, 0.027 hours/ns, 10332.279 timesteps/s
98.0% CPU use with 2 MPI tasks x 1 OpenMP threads

MPI task timing breakdown:
Section |  min time  |  avg time  |  max time  |%varavg| %total
---------------------------------------------------------------
Pair    | 0.56289    | 0.61358    | 0.66428    |   6.5 | 63.40
Neigh   | 0.0004947  | 0.00056613 | 0.00063756 |   0.0 |  0.06
Comm    | 0.10052    | 0.1509     | 0.20128    |  13.0 | 15.59
Output  | 7.4982e-05 | 0.00011281 | 0.00015064 |   0.0 |  0.01
Modify  | 0.19224    | 0.19281    | 0.19339    |   0.1 | 19.92
[...]
         0   0              1484.3997     -96.797481      5.9480852     -90.849396      1484.3997     -8208.277       648.25608    
      1000   1              1649.1151     -97.614799      6.6081106     -91.006688      1649.1151      14702.521      625.10472    
      2000   2              1821.6967     -97.694205      7.2996562     -90.394549      1821.6967     -109.06494      636.34993    
      3000   3              1617.1626     -97.802062      6.4800748     -91.321988      1617.1626      5810.7887      618.91437    
      4000   4              1648.7983     -97.142548      6.6068411     -90.535707      1648.7983     -962.03785      648.56254    
      5000   5              1851.506      -97.795488      7.4191041     -90.376384      1851.506       8147.0892      627.15516    
      6000   6              1611.3851     -96.8424        6.4569242     -90.385475      1611.3851      9488.6181      635.91131    
      7000   7              1425.8989     -96.794818      5.7136689     -91.081149      1425.8989      13832.128      630.6803     
      8000   8              1534.1361     -96.40785       6.1473824     -90.260467      1534.1361     -15452.668      656.6903     
      9000   9              1508.0989     -97.281647      6.0430497     -91.238597      1508.0989     -6052.9873      634.92817    
     10000   10             1721.6253     -97.848331      6.8986635     -90.949667      1721.6253      3047.2716      636.60041    
Loop time of 0.726911 on 2 procs for 10000 steps with 32 atoms

Performance: 1188.590 ns/day, 0.020 hours/ns, 13756.833 timesteps/s
98.0% CPU use with 2 MPI tasks x 1 OpenMP threads

MPI task timing breakdown:
Section |  min time  |  avg time  |  max time  |%varavg| %total
---------------------------------------------------------------
Pair    | 0.44057    | 0.44387    | 0.44717    |   0.5 | 61.06
Neigh   | 0.00634    | 0.0063971  | 0.0064542  |   0.1 |  0.88
Comm    | 0.089905   | 0.093354   | 0.096803   |   1.1 | 12.84
Output  | 6.9955e-05 | 0.00010874 | 0.00014752 |   0.0 |  0.01
Modify  | 0.17236    | 0.17387    | 0.17537    |   0.4 | 23.92
Other   |            | 0.009315   |            |       |  1.28

Nlocal:             16 ave          17 max          15 min
Histogram: 1 0 0 0 0 0 0 0 0 1
Nghost:          675.5 ave         682 max         669 min
Histogram: 1 0 0 0 0 0 0 0 0 1
Neighs:           1012 ave        1063 max         961 min
Histogram: 1 0 0 0 0 0 0 0 0 1

Total # of neighbors = 2024
Ave neighs/atom = 63.25
Neighbor list builds = 193
Dangerous builds = 0
1572.03861724263 -222.239578008197 639.963534924679 -2.83927763305512
 
*******LOOP2 # 19*********
 
Setting up Verlet run ...
  Unit style    : metal
  Current step  : 0
  Time step     : 0.001
Per MPI rank memory allocation (min/avg/max) = 3.707 | 3.707 | 3.707 Mbytes
   Step          Time           Temp          PotEng         KinEng         TotEng        c_mytemp      c_mypress        Volume    
         0   0              1721.6253     -97.848331      6.8986635     -90.949667      1721.6253      3047.2716      636.60041    
      1000   1              1335.1071     -97.296175      5.3498602     -91.946315      1335.1071     -5757.4514      637.07584    
      2000   2              1385.5823     -97.642908      5.5521176     -92.090791      1385.5823     -538.91654      635.20529    
      3000   3              1408.0188     -96.946586      5.6420221     -91.304564      1408.0188      3153.4826      634.9318     
      4000   4              1525.9979     -97.372301      6.1147722     -91.257529      1525.9979     -4197.7692      638.36074    
      5000   5              1333.1617     -97.11388       5.3420651     -91.771815      1333.1617     -5866.2682      640.5479     
      6000   6              1843.557      -96.9861        7.3872517     -89.598849      1843.557       483.46664      644.5426     
      7000   7              1401.8095     -97.093043      5.617141      -91.475902      1401.8095      17835.226      622.33128    
      8000   8              1465.9475     -96.488197      5.8741463     -90.614051      1465.9475     -789.07709      651.76861    
      9000   9              1632.7609     -97.053443      6.5425783     -90.510865      1632.7609      4382.5101      631.52262    
     10000   10             1624.244      -97.131626      6.5084506     -90.623175      1624.244       9757.9322      641.80428    
Loop time of 0.665896 on 2 procs for 10000 steps with 32 atoms

Performance: 1297.500 ns/day, 0.018 hours/ns, 15017.361 timesteps/s
97.4% CPU use with 2 MPI tasks x 1 OpenMP threads

MPI task timing breakdown:
Section |  min time  |  avg time  |  max time  |%varavg| %total
---------------------------------------------------------------
Pair    | 0.4369     | 0.43959    | 0.44227    |   0.4 | 66.01
Neigh   | 0.0061836  | 0.0062049  | 0.0062261  |   0.0 |  0.93
Comm    | 0.08786    | 0.090449   | 0.093038   |   0.9 | 13.58
Output  | 7.0874e-05 | 0.00010757 | 0.00014426 |   0.0 |  0.02
Modify  | 0.12087    | 0.12121    | 0.12154    |   0.1 | 18.20
Other   |            | 0.008337   |            |       |  1.25

Nlocal:             16 ave          19 max          13 min
Histogram: 1 0 0 0 0 0 0 0 0 1
Nghost:            689 ave         710 max         668 min
Histogram: 1 0 0 0 0 0 0 0 0 1
Neighs:         1002.5 ave        1177 max         828 min
Histogram: 1 0 0 0 0 0 0 0 0 1

Total # of neighbors = 2005
Ave neighs/atom = 62.65625
Neighbor list builds = 188
Dangerous builds = 0
Setting up Verlet run ...
  Unit style    : metal
  Current step  : 0
  Time step     : 0.001
Per MPI rank memory allocation (min/avg/max) = 3.707 | 3.707 | 3.707 Mbytes
   Step          Time           Temp          PotEng         KinEng         TotEng        c_mytemp      c_mypress        Volume    
         0   0              1624.244      -97.131626      6.5084506     -90.623175      1624.244       9757.9322      641.80428    
      1000   1              1603.8397     -97.796612      6.426689      -91.369923      1603.8397     -1798.1305      637.59788    
      2000   2              1719.7126     -97.785828      6.8909992     -90.894829      1719.7126     -7056.2029      640.21406    
      3000   3              1752.4607     -98.613224      7.022223      -91.591001      1752.4607     -3689.9549      632.74217    
      4000   4              1835.0518     -98.019364      7.353171      -90.666193      1835.0518      1958.9593      629.7166     
      5000   5              1788.1725     -98.174062      7.1653227     -91.00874       1788.1725      1083.7751      634.67182    
      6000   6              1476.0685     -96.788771      5.9147017     -90.87407       1476.0685      8241.9945      635.51941    
      7000   7              1488.6616     -97.014822      5.9651632     -91.049659      1488.6616      12050.947      648.208      
      8000   8              1313.8201     -96.315077      5.264562      -91.050515      1313.8201     -3948.5601      650.07256    
      9000   9              1452.4363     -96.628815      5.8200061     -90.808808      1452.4363     -1518.7603      646.75049    
     10000   10             1693.1065     -98.411772      6.7843867     -91.627385      1693.1065      20369.235      610.05616    
Loop time of 0.720117 on 2 procs for 10000 steps with 32 atoms

Performance: 1199.806 ns/day, 0.020 hours/ns, 13886.642 timesteps/s
97.2% CPU use with 2 MPI tasks x 1 OpenMP threads

MPI task timing breakdown:
Section |  min time  |  avg time  |  max time  |%varavg| %total
---------------------------------------------------------------
Pair    | 0.43687    | 0.44055    | 0.44422    |   0.6 | 61.18
Neigh   | 0.0062762  | 0.0062935  | 0.0063108  |   0.0 |  0.87
Comm    | 0.087184   | 0.090928   | 0.094673   |   1.2 | 12.63
Output  | 0.00013988 | 0.00038742 | 0.00063495 |   0.0 |  0.05
Modify  | 0.17081    | 0.17255    | 0.17429    |   0.4 | 23.96
Other   |            | 0.009414   |            |       |  1.31

Nlocal:             16 ave          17 max          15 min
Histogram: 1 0 0 0 0 0 0 0 0 1
Nghost:          711.5 ave         721 max         702 min
Histogram: 1 0 0 0 0 0 0 0 0 1
Neighs:           1088 ave        1200 max         976 min
Histogram: 1 0 0 0 0 0 0 0 0 1

Total # of neighbors = 2176
Ave neighs/atom = 68
Neighbor list builds = 192
Dangerous builds = 0
1548.78596056035 -298.085537851259 640.256733995815 -2.84488087131123
 
*******LOOP2 # 20*********
 
Setting up Verlet run ...
  Unit style    : metal
  Current step  : 0
  Time step     : 0.001
Per MPI rank memory allocation (min/avg/max) = 3.731 | 3.731 | 3.731 Mbytes
   Step          Time           Temp          PotEng         KinEng         TotEng        c_mytemp      c_mypress        Volume    
         0   0              1693.1065     -98.411772      6.7843867     -91.627385      1693.1065      20369.235      610.05616    
      1000   1              1742.4856     -98.816231      6.9822521     -91.833979      1742.4856      10725.116      617.51954    
      2000   2              1408.4262     -95.860645      5.6436546     -90.21699       1408.4262     -7957.2433      657.82661    
      3000   3              1523.47       -97.73904       6.1046425     -91.634398      1523.47       -2075.3473      634.94028    
      4000   4              1488.0849     -97.511456      5.9628522     -91.548603      1488.0849      2247.188       634.89214    
      5000   5              1388.2602     -97.094797      5.5628483     -91.531949      1388.2602      5644.763       640.42029    
      6000   6              1402.0539     -96.448012      5.6181205     -90.829892      1402.0539      3580.7201      652.90041    
      7000   7              1500.9737     -97.247877      6.0144983     -91.233379      1500.9737     -2173.3088      639.26301    
      8000   8              1525.3681     -97.768605      6.1122484     -91.656357      1525.3681     -12677.161      644.72167    
      9000   9              1343.9053     -96.766017      5.3851151     -91.380902      1343.9053      7737.5023      628.51303    
     10000   10             1332.1313     -96.941485      5.3379359     -91.603549      1332.1313      105.43604      639.97085    
Loop time of 0.667879 on 2 procs for 10000 steps with 32 atoms

Performance: 1293.647 ns/day, 0.019 hours/ns, 14972.767 timesteps/s
97.3% CPU use with 2 MPI tasks x 1 OpenMP threads

MPI task timing breakdown:
Section |  min time  |  avg time  |  max time  |%varavg| %total
---------------------------------------------------------------
Pair    | 0.43833    | 0.44114    | 0.44394    |   0.4 | 66.05
Neigh   | 0.0062698  | 0.0062908  | 0.0063119  |   0.0 |  0.94
Comm    | 0.087154   | 0.089838   | 0.092522   |   0.9 | 13.45
Output  | 7.8407e-05 | 0.00011509 | 0.00015177 |   0.0 |  0.02
Modify  | 0.12158    | 0.12198    | 0.12239    |   0.1 | 18.26
Other   |            | 0.008512   |            |       |  1.27

Nlocal:             16 ave          17 max          15 min
Histogram: 1 0 0 0 0 0 0 0 0 1
Nghost:            689 ave         690 max         688 min
Histogram: 1 0 0 0 0 0 0 0 0 1
Neighs:           1011 ave        1074 max         948 min
Histogram: 1 0 0 0 0 0 0 0 0 1

Total # of neighbors = 2022
Ave neighs/atom = 63.1875
Neighbor list builds = 190
Dangerous builds = 0
Setting up Verlet run ...
  Unit style    : metal
  Current step  : 0
  Time step     : 0.001
Per MPI rank memory allocation (min/avg/max) = 3.707 | 3.707 | 3.707 Mbytes
   Step          Time           Temp          PotEng         KinEng         TotEng        c_mytemp      c_mypress        Volume    
         0   0              1332.1313     -96.941485      5.3379359     -91.603549      1332.1313      105.43604      639.97085    
      1000   1              1313.1867     -97.504752      5.2620239     -92.242728      1313.1867      7972.7408      626.85719    
      2000   2              1746.1955     -97.730819      6.9971179     -90.733701      1746.1955     -4174.6279      635.74944    
      3000   3              1278.5856     -97.348592      5.1233751     -92.225216      1278.5856      7843.9384      634.01456    
      4000   4              1495.7265     -96.47096       5.9934726     -90.477488      1495.7265      4685.0159      652.14422    
      5000   5              1594.7198     -97.167178      6.3901451     -90.777033      1594.7198      7579.1946      628.58586    
      6000   6              1358.3062     -97.401333      5.4428204     -91.958512      1358.3062      15919.586      625.14552    
      7000   7              1422.485      -97.027432      5.6999891     -91.327443      1422.485       9426.7255      631.05896    
      8000   8              1527.27       -97.368506      6.1198694     -91.248636      1527.27        614.266        637.91642    
      9000   9              1552.1706     -97.972683      6.2196478     -91.753035      1552.1706     -602.40846      629.51555    
     10000   10             1164.4356     -96.437451      4.6659687     -91.771482      1164.4356     -2748.3182      642.46113    
Loop time of 0.726148 on 2 procs for 10000 steps with 32 atoms

Performance: 1189.840 ns/day, 0.020 hours/ns, 13771.291 timesteps/s
97.6% CPU use with 2 MPI tasks x 1 OpenMP threads

MPI task timing breakdown:
Section |  min time  |  avg time  |  max time  |%varavg| %total
---------------------------------------------------------------
Pair    | 0.43439    | 0.4414     | 0.4484     |   1.1 | 60.79
Neigh   | 0.0061167  | 0.0062164  | 0.0063161  |   0.1 |  0.86
Comm    | 0.087893   | 0.094784   | 0.10168    |   2.2 | 13.05
Output  | 7.0244e-05 | 0.00010581 | 0.00014138 |   0.0 |  0.01
Modify  | 0.17478    | 0.17509    | 0.17539    |   0.1 | 24.11
Other   |            | 0.00856    |            |       |  1.18

Nlocal:             16 ave          18 max          14 min
Histogram: 1 0 0 0 0 0 0 0 0 1
Nghost:          678.5 ave         690 max         667 min
Histogram: 1 0 0 0 0 0 0 0 0 1
Neighs:          991.5 ave        1118 max         865 min
Histogram: 1 0 0 0 0 0 0 0 0 1

Total # of neighbors = 1983
Ave neighs/atom = 61.96875
Neighbor list builds = 187
Dangerous builds = 0
1521.72052944387 -329.525042944757 638.20865210313 -2.85542530837816
 
*******LOOP2 # 21*********
 
Setting up Verlet run ...
  Unit style    : metal
  Current step  : 0
  Time step     : 0.001
Per MPI rank memory allocation (min/avg/max) = 3.707 | 3.707 | 3.707 Mbytes
   Step          Time           Temp          PotEng         KinEng         TotEng        c_mytemp      c_mypress        Volume    
         0   0              1164.4356     -96.437451      4.6659687     -91.771482      1164.4356     -2748.3182      642.46113    
      1000   1              1336.3832     -96.148359      5.3549736     -90.793385      1336.3832      1608.7637      645.50317    
      2000   2              1341.3754     -97.850273      5.3749776     -92.475296      1341.3754     -3229.9914      628.86786    
      3000   3              1625.8506     -98.082664      6.5148883     -91.567775      1625.8506     -13827.225      636.8077     
      4000   4              1334.9724     -97.465662      5.3493203     -92.116342      1334.9724      15598.48       620.77082    
      5000   5              1462.826      -97.25665       5.8616382     -91.395012      1462.826      -10109.831      657.43915    
      6000   6              1341.2744     -96.91826       5.3745729     -91.543687      1341.2744      2149.471       627.72497    
      7000   7              1350.9591     -96.908509      5.4133802     -91.495129      1350.9591     -865.49537      648.39904    
      8000   8              1382.0728     -97.484372      5.5380548     -91.946318      1382.0728     -496.7325       617.78105    
      9000   9              1560.7125     -97.583282      6.2538756     -91.329407      1560.7125     -3260.2834      644.84817    
     10000   10             1237.127      -96.768501      4.9572478     -91.811253      1237.127       2632.2563      630.09797    
Loop time of 0.66789 on 2 procs for 10000 steps with 32 atoms

Performance: 1293.626 ns/day, 0.019 hours/ns, 14972.527 timesteps/s
97.5% CPU use with 2 MPI tasks x 1 OpenMP threads

MPI task timing breakdown:
Section |  min time  |  avg time  |  max time  |%varavg| %total
---------------------------------------------------------------
Pair    | 0.43794    | 0.44084    | 0.44374    |   0.4 | 66.00
Neigh   | 0.0062069  | 0.0062573  | 0.0063078  |   0.1 |  0.94
Comm    | 0.087843   | 0.090612   | 0.093382   |   0.9 | 13.57
Output  | 0.00014462 | 0.000425   | 0.00070538 |   0.0 |  0.06
Modify  | 0.12104    | 0.12159    | 0.12213    |   0.2 | 18.20
Other   |            | 0.00817    |            |       |  1.22

Nlocal:             16 ave          17 max          15 min
Histogram: 1 0 0 0 0 0 0 0 0 1
Nghost:          696.5 ave         703 max         690 min
Histogram: 1 0 0 0 0 0 0 0 0 1
Neighs:           1024 ave        1094 max         954 min
Histogram: 1 0 0 0 0 0 0 0 0 1

Total # of neighbors = 2048
Ave neighs/atom = 64
Neighbor list builds = 188
Dangerous builds = 0
Setting up Verlet run ...
  Unit style    : metal
  Current step  : 0
  Time step     : 0.001
Per MPI rank memory allocation (min/avg/max) = 3.707 | 3.707 | 3.707 Mbytes
   Step          Time           Temp          PotEng         KinEng         TotEng        c_mytemp      c_mypress        Volume    
         0   0              1237.127      -96.768501      4.9572478     -91.811253      1237.127       2632.2563      630.09797    
      1000   1              1288.1075     -96.076346      5.1615296     -90.914816      1288.1075      1858.5699      656.73731    
      2000   2              1674.9503     -97.059         6.711634      -90.347366      1674.9503      8958.8633      630.40219    
      3000   3              1350.2738     -97.125192      5.4106344     -91.714557      1350.2738      8546.2261      623.78559    
      4000   4              1504.1344     -97.252891      6.0271635     -91.225728      1504.1344      1771.8908      639.68827    
      5000   5              1470.3361     -97.587183      5.8917315     -91.695451      1470.3361     -3604.8852      630.87149    
      6000   6              1433.9151     -97.885431      5.7457901     -92.139641      1433.9151      950.97896      639.47257    
      7000   7              1321.79       -96.692423      5.2964978     -91.395925      1321.79       -6235.6564      657.06133    
      8000   8              1477.4532     -97.82911       5.9202502     -91.90886       1477.4532     -2019.3304      634.54045    
      9000   9              1586.8734     -98.223275      6.358704      -91.864571      1586.8734      3430.6605      619.29532    
     10000   10             1244.0174     -97.102716      4.9848578     -92.117858      1244.0174     -420.58469      639.24542    
Loop time of 0.713291 on 2 procs for 10000 steps with 32 atoms

Performance: 1211.286 ns/day, 0.020 hours/ns, 14019.518 timesteps/s
97.6% CPU use with 2 MPI tasks x 1 OpenMP threads

MPI task timing breakdown:
Section |  min time  |  avg time  |  max time  |%varavg| %total
---------------------------------------------------------------
Pair    | 0.43018    | 0.43631    | 0.44244    |   0.9 | 61.17
Neigh   | 0.0060909  | 0.0061081  | 0.0061253  |   0.0 |  0.86
Comm    | 0.0846     | 0.090649   | 0.096697   |   2.0 | 12.71
Output  | 0.00013834 | 0.00033437 | 0.00053039 |   0.0 |  0.05
Modify  | 0.17102    | 0.17139    | 0.17175    |   0.1 | 24.03
Other   |            | 0.008499   |            |       |  1.19

Nlocal:             16 ave          17 max          15 min
Histogram: 1 0 0 0 0 0 0 0 0 1
Nghost:          675.5 ave         682 max         669 min
Histogram: 1 0 0 0 0 0 0 0 0 1
Neighs:           1014 ave        1072 max         956 min
Histogram: 1 0 0 0 0 0 0 0 0 1

Total # of neighbors = 2028
Ave neighs/atom = 63.375
Neighbor list builds = 186
Dangerous builds = 0
1495.32707291823 -102.876733134677 635.984205046245 -2.86057084313434
Total wall time: 0:01:11
