LAMMPS (23 Jun 2022 - Update 4)
OMP_NUM_THREADS environment is not set. Defaulting to 1 thread. (src/src/comm.cpp:98)
  using 1 OpenMP thread(s) per MPI task
# MSE 401 Lab 2
# Heat and cooling of Aluminum using Molecular Dynamics

# Section 1: Setting up initial parameters

# Define unit set and class of atomic model
units metal
atom_style atomic

# Parameters for Problems 2.1:
# -----------------------------------------------------------------------------
variable TempInitial equal 900
variable TempFinal equal 2000
variable TempStep equal 25
variable StepSize equal 0.001
# -----------------------------------------------------------------------------

# Periodic boundary conditions along all three dimensions
boundary p p p

# Create an FCC lattice with the lattice spacing supplied supplied by the user
# using a single conventional (orthogonal) unit cell

lattice fcc 4.04525
Lattice spacing in x,y,z = 4.04525 4.04525 4.04525
region  box block 0 2 0 2 0 2 units lattice
create_box  1 box
Created orthogonal box = (0 0 0) to (8.0905 8.0905 8.0905)
  1 by 1 by 2 MPI processor grid
create_atoms 1 box
Created 32 atoms
  using lattice units in orthogonal box = (0 0 0) to (8.0905 8.0905 8.0905)
  create_atoms CPU = 0.000 seconds

# Specify which force fields or potentials to use
pair_style eam/alloy
pair_coeff * * ./Al_mm.eam.fs  Al
Reading eam/alloy potential file ./Al_mm.eam.fs with DATE: 2007-06-11
#pair_style	lj/cut 2.5
#pair_coeff	1 1 1.0 1.0 2.5

# Create files outside of any loops
variable prallfile string prall.txt
# Print headers
print "Temp                     Press                     Vol                     Etotal" file ${prallfile}
print "Temp                     Press                     Vol                     Etotal" file prall.txt
Temp                     Press                     Vol                     Etotal

# Set what thermodynamic information to print to log
compute mytemp all temp
compute mypress all pressure thermo_temp
# compute statements to normalize the pe and ke
compute NormPE all pe/atom
compute NormKE all ke/atom
# calculate average value over atoms
compute avgPE all reduce ave c_NormPE
compute avgKE all reduce ave c_NormKE
# create variables for average Etotal, Temp, and Pressure, and vol
variable avgEtotal   equal c_avgPE+c_avgKE
variable vmytemp   equal c_mytemp
variable vmypress   equal c_mypress
variable vmyvol  equal vol

# set thermo style which determines what thermo data will be displayed on each timestep of our runs
thermo_style custom step time temp pe ke etotal c_mytemp c_mypress vol
timestep 0.001

# Section 2: Starting MD runs

# NVE stabilization run
variable tempinit equal 600 # Use 2*${tempvar} for fixed E ensemble.
velocity all create ${tempinit} 825577 dist gaussian
velocity all create 600 825577 dist gaussian
fix 1 all nve # nve ensemble molecular dynamics.
fix 2 all ave/time 1 10 10 c_mytemp c_mypress v_vmyvol v_avgEtotal file nveeqfile.txt
thermo 1000 # Print every "thermo" timesteps
run 5000
Neighbor list info ...
  update every 1 steps, delay 10 steps, check yes
  max neighbors/atom: 2000, page size: 100000
  master list distance cutoff = 8.5
  ghost atom cutoff = 8.5
  binsize = 4.25, bins = 2 2 2
  1 neighbor lists, perpetual/occasional/extra = 1 0 0
  (1) pair eam/alloy, perpetual
      attributes: half, newton on
      pair build: half/bin/atomonly/newton
      stencil: half/bin/3d
      bin: standard
Per MPI rank memory allocation (min/avg/max) = 3.346 | 3.346 | 3.346 Mbytes
   Step          Time           Temp          PotEng         KinEng         TotEng        c_mytemp      c_mypress        Volume    
         0   0              600           -109.14102      2.4042387     -106.73678      600            4854.6303      529.57331    
      1000   1              297.43987     -107.9281       1.1918607     -106.73624      297.43987      16140.891      529.57331    
      2000   2              328.31007     -108.05193      1.3155596     -106.73637      328.31007      15910.49       529.57331    
      3000   3              323.22736     -108.03156      1.2951929     -106.73636      323.22736      15720.917      529.57331    
      4000   4              271.89734     -107.82573      1.0895102     -106.73622      271.89734      16892.09       529.57331    
      5000   5              350.10661     -108.13931      1.4028998     -106.73641      350.10661      15163.968      529.57331    
Loop time of 0.362922 on 2 procs for 5000 steps with 32 atoms

Performance: 1190.340 ns/day, 0.020 hours/ns, 13777.078 timesteps/s
98.2% CPU use with 2 MPI tasks x 1 OpenMP threads

MPI task timing breakdown:
Section |  min time  |  avg time  |  max time  |%varavg| %total
---------------------------------------------------------------
Pair    | 0.236      | 0.25171    | 0.26742    |   3.1 | 69.36
Neigh   | 0          | 0          | 0          |   0.0 |  0.00
Comm    | 0.048606   | 0.064637   | 0.080669   |   6.3 | 17.81
Output  | 4.5925e-05 | 6.3218e-05 | 8.0511e-05 |   0.0 |  0.02
Modify  | 0.038632   | 0.040273   | 0.041913   |   0.8 | 11.10
Other   |            | 0.006238   |            |       |  1.72

Nlocal:             16 ave          16 max          16 min
Histogram: 2 0 0 0 0 0 0 0 0 0
Nghost:            914 ave         914 max         914 min
Histogram: 2 0 0 0 0 0 0 0 0 0
Neighs:           1120 ave        1314 max         926 min
Histogram: 1 0 0 0 0 0 0 0 0 1

Total # of neighbors = 2240
Ave neighs/atom = 70
Neighbor list builds = 0
Dangerous builds = 0
unfix 2
unfix 1

# NPT stabilization run
fix 1 all npt temp 700 700 0.1 iso 800000 800000 1 drag 1 # npt ensemble molecular dynamics.
fix 2 all ave/time 1 10 10 c_mytemp c_mypress v_vmyvol v_avgEtotal file npteqfile.txt
thermo 1000
run 5000
Per MPI rank memory allocation (min/avg/max) = 3.605 | 3.605 | 3.605 Mbytes
   Step          Time           Temp          PotEng         KinEng         TotEng        c_mytemp      c_mypress        Volume    
      5000   5              350.10661     -108.13931      1.4028998     -106.73641      350.10661      15163.968      529.57331    
      6000   6              831.19264     -92.776036      3.3306425     -89.445393      831.19264      787152.72      396.25644    
      7000   7              663.64044     -92.727452      2.6592501     -90.068202      663.64044      690551.69      397.15151    
      8000   8              740.38119     -92.935971      2.9667552     -89.969216      740.38119      680992.65      396.90349    
      9000   9              597.93408     -92.411436      2.3959604     -90.015475      597.93408      725294.68      397.09663    
     10000   10             563.06508     -91.957677      2.2562381     -89.701439      563.06508      783839.63      396.63406    
Loop time of 0.457927 on 2 procs for 5000 steps with 32 atoms

Performance: 943.381 ns/day, 0.025 hours/ns, 10918.764 timesteps/s
97.6% CPU use with 2 MPI tasks x 1 OpenMP threads

MPI task timing breakdown:
Section |  min time  |  avg time  |  max time  |%varavg| %total
---------------------------------------------------------------
Pair    | 0.30558    | 0.32037    | 0.33516    |   2.6 | 69.96
Neigh   | 4.1959e-05 | 4.9409e-05 | 5.6858e-05 |   0.0 |  0.01
Comm    | 0.051762   | 0.066888   | 0.082014   |   5.8 | 14.61
Output  | 8.3668e-05 | 0.00033436 | 0.00058505 |   0.0 |  0.07
Modify  | 0.064469   | 0.065478   | 0.066487   |   0.4 | 14.30
Other   |            | 0.004809   |            |       |  1.05

Nlocal:             16 ave          16 max          16 min
Histogram: 2 0 0 0 0 0 0 0 0 0
Nghost:            914 ave         914 max         914 min
Histogram: 2 0 0 0 0 0 0 0 0 0
Neighs:         1537.5 ave        1766 max        1309 min
Histogram: 1 0 0 0 0 0 0 0 0 1

Total # of neighbors = 3075
Ave neighs/atom = 96.09375
Neighbor list builds = 1
Dangerous builds = 0
unfix 2
unfix 1

# --------------------------------------------------------------------------------------------
# Generate loops to ramp temperature up
variable LoopSize equal 21
label LoopStart
variable i loop ${LoopSize}
variable i loop 21
print " "
 
print "*******LOOP # $i*********"
*******LOOP # 1*********
print " "
 
variable tempvar equal ${TempStep}*${i}+${TempInitial}-${TempStep}
variable tempvar equal 25*${i}+${TempInitial}-${TempStep}
variable tempvar equal 25*1+${TempInitial}-${TempStep}
variable tempvar equal 25*1+900-${TempStep}
variable tempvar equal 25*1+900-25
variable rampup_eqavgfile string rampup_eqavg_${tempvar}.txt
variable rampup_eqavgfile string rampup_eqavg_900.txt
variable rampup_pravgfile string rampup_pravg_${tempvar}.txt
variable rampup_pravgfile string rampup_pravg_900.txt
# variable rampup_eqfile string rampup_eq_${tempvar}.txt

# NPT Equilibration run at temperature
reset_timestep 0
variable eqrunl equal 1E4 # Keep > 10000 to avoid crashing fix lines below for time avg output
fix 1 all npt temp ${tempvar} ${tempvar} 0.1 iso 800000 800000 1 drag 1 # npt ensemble molecular dynamics.
fix 1 all npt temp 900 ${tempvar} 0.1 iso 800000 800000 1 drag 1 
fix 1 all npt temp 900 900 0.1 iso 800000 800000 1 drag 1 

fix 2 all ave/time 1 10 10 c_mytemp c_mypress v_vmyvol v_avgEtotal file ${rampup_eqavgfile}
fix 2 all ave/time 1 10 10 c_mytemp c_mypress v_vmyvol v_avgEtotal file rampup_eqavg_900.txt
# print to file average of every 10 steps. Every 10 femptoseconds


# fix 3 all ave/time 1 10000 10000 c_mytemp c_mypress v_vmyvol v_avgEtotal file ${rampup_eqfile}
thermo 1000 # Print every "thermo" timesteps
run ${eqrunl}
run 10000
Per MPI rank memory allocation (min/avg/max) = 3.605 | 3.605 | 3.605 Mbytes
   Step          Time           Temp          PotEng         KinEng         TotEng        c_mytemp      c_mypress        Volume    
         0   0              563.06508     -91.957677      2.2562381     -89.701439      563.06508      783839.63      396.63406    
      1000   1              722.69406     -91.116105      2.8958817     -88.220224      722.69406      853287.85      396.54091    
      2000   2              926.50059     -91.070047      3.7125476     -87.357499      926.50059      942159.51      394.89103    
      3000   3              844.63288     -91.541514      3.3844984     -88.157016      844.63288      814789.22      396.39629    
      4000   4              966.51886     -92.135345      3.8729034     -88.262442      966.51886      765119.05      396.42231    
      5000   5              1039.9284     -92.523198      4.1670602     -88.356138      1039.9284      728126.4       396.62166    
      6000   6              833.31489     -91.928186      3.3391465     -88.589039      833.31489      733765.36      397.08852    
      7000   7              842.99798     -91.971753      3.3779473     -88.593805      842.99798      741626.56      397.14086    
      8000   8              1100.4208     -91.749733      4.4094571     -87.340276      1100.4208      929698.72      395.01633    
      9000   9              996.37941     -91.009639      3.9925565     -87.017082      996.37941      1004168.5      394.35724    
     10000   10             880.67914     -91.201959      3.5289381     -87.673021      880.67914      917394.92      395.40861    
Loop time of 0.975211 on 2 procs for 10000 steps with 32 atoms

Performance: 885.962 ns/day, 0.027 hours/ns, 10254.190 timesteps/s
98.0% CPU use with 2 MPI tasks x 1 OpenMP threads

MPI task timing breakdown:
Section |  min time  |  avg time  |  max time  |%varavg| %total
---------------------------------------------------------------
Pair    | 0.66662    | 0.69254    | 0.71846    |   3.1 | 71.01
Neigh   | 0.00036294 | 0.00039627 | 0.00042961 |   0.0 |  0.04
Comm    | 0.10802    | 0.13461    | 0.1612     |   7.2 | 13.80
Output  | 8.8908e-05 | 0.00012267 | 0.00015642 |   0.0 |  0.01
Modify  | 0.13512    | 0.13712    | 0.13912    |   0.5 | 14.06
Other   |            | 0.01042    |            |       |  1.07

Nlocal:             16 ave          18 max          14 min
Histogram: 1 0 0 0 0 0 0 0 0 1
Nghost:            914 ave         916 max         912 min
Histogram: 1 0 0 0 0 0 0 0 0 1
Neighs:         1638.5 ave        1766 max        1511 min
Histogram: 1 0 0 0 0 0 0 0 0 1

Total # of neighbors = 3277
Ave neighs/atom = 102.40625
Neighbor list builds = 7
Dangerous builds = 0
unfix 2
# unfix 3

# NPT Production run at temperature
reset_timestep 0
variable prrunl equal 1E4
fix 3 all ave/time 1 10000 10000 c_mytemp c_mypress v_vmyvol v_avgEtotal
fix 4 all ave/time 1 10 10 c_mytemp c_mypress v_vmyvol v_avgEtotal file ${rampup_pravgfile}
fix 4 all ave/time 1 10 10 c_mytemp c_mypress v_vmyvol v_avgEtotal file rampup_pravg_900.txt
# print to file average of every 10 steps. Every 10 femptoseconds

thermo 1000 # Print every "thermo" timesteps
run ${prrunl}
run 10000
Per MPI rank memory allocation (min/avg/max) = 3.605 | 3.605 | 3.605 Mbytes
   Step          Time           Temp          PotEng         KinEng         TotEng        c_mytemp      c_mypress        Volume    
         0   0              880.67914     -91.201959      3.5289381     -87.673021      880.67914      917394.92      395.40861    
      1000   1              990.92978     -92.04973       3.9707196     -88.07901       990.92978      794449.74      396.29161    
      2000   2              1012.9824     -92.176063      4.059086      -88.116977      1012.9824      775430.33      396.35176    
      3000   3              797.86155     -91.427408      3.1970827     -88.230325      797.86155      778606.97      396.59329    
      4000   4              885.97307     -91.955098      3.5501512     -88.404947      885.97307      764770.68      396.80465    
      5000   5              822.63901     -91.727217      3.2963676     -88.430849      822.63901      771802.51      396.64755    
      6000   6              852.31016     -91.540744      3.4152618     -88.125483      852.31016      855755.57      396.22425    
      7000   7              852.02901     -91.84163       3.4141352     -88.427495      852.02901      772714.92      396.75523    
      8000   8              1125.2784     -93.091337      4.509063      -88.582274      1125.2784      682347.32      397.19509    
      9000   9              927.87432     -91.66908       3.7180522     -87.951028      927.87432      850157.25      395.58673    
     10000   10             927.3617      -91.407261      3.7159982     -87.691263      927.3617       858640.35      395.32714    
Loop time of 1.08257 on 2 procs for 10000 steps with 32 atoms

Performance: 798.101 ns/day, 0.030 hours/ns, 9237.284 timesteps/s
97.6% CPU use with 2 MPI tasks x 1 OpenMP threads

MPI task timing breakdown:
Section |  min time  |  avg time  |  max time  |%varavg| %total
---------------------------------------------------------------
Pair    | 0.65311    | 0.70149    | 0.74987    |   5.8 | 64.80
Neigh   | 0          | 0          | 0          |   0.0 |  0.00
Comm    | 0.1116     | 0.16023    | 0.20886    |  12.1 | 14.80
Output  | 9.511e-05  | 0.00013135 | 0.00016759 |   0.0 |  0.01
Modify  | 0.20949    | 0.21042    | 0.21134    |   0.2 | 19.44
Other   |            | 0.0103     |            |       |  0.95

Nlocal:             16 ave          16 max          16 min
Histogram: 2 0 0 0 0 0 0 0 0 0
Nghost:            914 ave         914 max         914 min
Histogram: 2 0 0 0 0 0 0 0 0 0
Neighs:         1640.5 ave        1880 max        1401 min
Histogram: 1 0 0 0 0 0 0 0 0 1

Total # of neighbors = 3281
Ave neighs/atom = 102.53125
Neighbor list builds = 0
Dangerous builds = 0
variable final_temp_avg equal f_3[1]
variable final_press_avg equal f_3[2]
variable final_vol_avg equal f_3[3]
variable final_etot_avg equal f_3[4]

print "${final_temp_avg} ${final_press_avg} ${final_vol_avg} ${final_etot_avg}" append ${prallfile}
print "${final_temp_avg} ${final_press_avg} ${final_vol_avg} ${final_etot_avg}" append prall.txt
898.441512737183 799990.716608017 396.382100130066 -2.75591080282828

unfix 3
unfix 4
#unfix 1

next i
jump Ramp.txt.in LoopStart
variable i loop ${LoopSize}
variable i loop 21
print " "
 
print "*******LOOP # $i*********"
*******LOOP # 2*********
print " "
 
variable tempvar equal ${TempStep}*${i}+${TempInitial}-${TempStep}
variable tempvar equal 25*${i}+${TempInitial}-${TempStep}
variable tempvar equal 25*2+${TempInitial}-${TempStep}
variable tempvar equal 25*2+900-${TempStep}
variable tempvar equal 25*2+900-25
variable rampup_eqavgfile string rampup_eqavg_${tempvar}.txt
variable rampup_eqavgfile string rampup_eqavg_925.txt
variable rampup_pravgfile string rampup_pravg_${tempvar}.txt
variable rampup_pravgfile string rampup_pravg_925.txt
# variable rampup_eqfile string rampup_eq_${tempvar}.txt

# NPT Equilibration run at temperature
reset_timestep 0
variable eqrunl equal 1E4 # Keep > 10000 to avoid crashing fix lines below for time avg output
fix 1 all npt temp ${tempvar} ${tempvar} 0.1 iso 800000 800000 1 drag 1 # npt ensemble molecular dynamics.
fix 1 all npt temp 925 ${tempvar} 0.1 iso 800000 800000 1 drag 1 
fix 1 all npt temp 925 925 0.1 iso 800000 800000 1 drag 1 

fix 2 all ave/time 1 10 10 c_mytemp c_mypress v_vmyvol v_avgEtotal file ${rampup_eqavgfile}
fix 2 all ave/time 1 10 10 c_mytemp c_mypress v_vmyvol v_avgEtotal file rampup_eqavg_925.txt
# print to file average of every 10 steps. Every 10 femptoseconds


# fix 3 all ave/time 1 10000 10000 c_mytemp c_mypress v_vmyvol v_avgEtotal file ${rampup_eqfile}
thermo 1000 # Print every "thermo" timesteps
run ${eqrunl}
run 10000
Per MPI rank memory allocation (min/avg/max) = 3.605 | 3.605 | 3.605 Mbytes
   Step          Time           Temp          PotEng         KinEng         TotEng        c_mytemp      c_mypress        Volume    
         0   0              927.3617      -91.407261      3.7159982     -87.691263      927.3617       858640.35      395.32714    
      1000   1              968.68241     -91.58452       3.8815729     -87.702948      968.68241      803917.94      396.01266    
      2000   2              821.9032      -91.617424      3.2934191     -88.324005      821.9032       793479.74      397.17991    
      3000   3              934.12262     -92.431799      3.7430896     -88.688709      934.12262      676351.36      397.83942    
      4000   4              933.81991     -92.056633      3.7418766     -88.314756      933.81991      776467.07      397.28759    
      5000   5              984.62341     -92.049466      3.9454495     -88.104017      984.62341      757176.53      396.58652    
      6000   6              800.60572     -90.882144      3.2080787     -87.674065      800.60572      887751.6       395.69289    
      7000   7              1097.4238     -92.78124       4.3974481     -88.383792      1097.4238      691945.76      397.29381    
      8000   8              918.28301     -91.723916      3.6796192     -88.044297      918.28301      835976.14      396.60804    
      9000   9              963.38573     -91.524943      3.8603488     -87.664594      963.38573      886427.84      395.72734    
     10000   10             857.74643     -91.756045      3.4370453     -88.319         857.74643      737343.93      396.82616    
Loop time of 0.979018 on 2 procs for 10000 steps with 32 atoms

Performance: 882.517 ns/day, 0.027 hours/ns, 10214.314 timesteps/s
97.0% CPU use with 2 MPI tasks x 1 OpenMP threads

MPI task timing breakdown:
Section |  min time  |  avg time  |  max time  |%varavg| %total
---------------------------------------------------------------
Pair    | 0.62891    | 0.67525    | 0.72158    |   5.6 | 68.97
Neigh   | 0          | 0          | 0          |   0.0 |  0.00
Comm    | 0.10722    | 0.154      | 0.20078    |  11.9 | 15.73
Output  | 0.00015696 | 0.00041115 | 0.00066534 |   0.0 |  0.04
Modify  | 0.13819    | 0.1382     | 0.13821    |   0.0 | 14.12
Other   |            | 0.01116    |            |       |  1.14

Nlocal:             16 ave          16 max          16 min
Histogram: 2 0 0 0 0 0 0 0 0 0
Nghost:            914 ave         914 max         914 min
Histogram: 2 0 0 0 0 0 0 0 0 0
Neighs:           1636 ave        1925 max        1347 min
Histogram: 1 0 0 0 0 0 0 0 0 1

Total # of neighbors = 3272
Ave neighs/atom = 102.25
Neighbor list builds = 0
Dangerous builds = 0
unfix 2
# unfix 3

# NPT Production run at temperature
reset_timestep 0
variable prrunl equal 1E4
fix 3 all ave/time 1 10000 10000 c_mytemp c_mypress v_vmyvol v_avgEtotal
fix 4 all ave/time 1 10 10 c_mytemp c_mypress v_vmyvol v_avgEtotal file ${rampup_pravgfile}
fix 4 all ave/time 1 10 10 c_mytemp c_mypress v_vmyvol v_avgEtotal file rampup_pravg_925.txt
# print to file average of every 10 steps. Every 10 femptoseconds

thermo 1000 # Print every "thermo" timesteps
run ${prrunl}
run 10000
Per MPI rank memory allocation (min/avg/max) = 3.605 | 3.605 | 3.605 Mbytes
   Step          Time           Temp          PotEng         KinEng         TotEng        c_mytemp      c_mypress        Volume    
         0   0              857.74643     -91.756045      3.4370453     -88.319         857.74643      737343.93      396.82616    
      1000   1              1102.5914     -92.21321       4.4181547     -87.795055      1102.5914      805253.53      396.08015    
      2000   2              874.02659     -92.277675      3.5022809     -88.775394      874.02659      700331.34      397.84305    
      3000   3              928.77926     -92.843413      3.7216784     -89.121734      928.77926      616951.87      398.65372    
      4000   4              917.39797     -92.216507      3.6760729     -88.540434      917.39797      715056.44      397.45987    
      5000   5              764.20806     -91.571755      3.062231      -88.509524      764.20806      752181.01      397.56181    
      6000   6              868.15444     -91.367771      3.4787508     -87.88902       868.15444      835354.27      395.96656    
      7000   7              990.82516     -92.027151      3.9703003     -88.056851      990.82516      789997.47      396.50226    
      8000   8              1026.7656     -92.564148      4.114316      -88.449832      1026.7656      711570.71      397.40698    
      9000   9              1005.5547     -93.000214      4.0293227     -88.970892      1005.5547      609134.81      398.32514    
     10000   10             771.20984     -90.790354      3.0902876     -87.700066      771.20984      876839.24      395.52359    
Loop time of 1.04729 on 2 procs for 10000 steps with 32 atoms

Performance: 824.990 ns/day, 0.029 hours/ns, 9548.491 timesteps/s
97.6% CPU use with 2 MPI tasks x 1 OpenMP threads

MPI task timing breakdown:
Section |  min time  |  avg time  |  max time  |%varavg| %total
---------------------------------------------------------------
Pair    | 0.65807    | 0.68838    | 0.7187     |   3.7 | 65.73
Neigh   | 0          | 0          | 0          |   0.0 |  0.00
Comm    | 0.11323    | 0.14443    | 0.17563    |   8.2 | 13.79
Output  | 8.0221e-05 | 0.00012002 | 0.00015981 |   0.0 |  0.01
Modify  | 0.20303    | 0.20442    | 0.2058     |   0.3 | 19.52
Other   |            | 0.009937   |            |       |  0.95

Nlocal:             16 ave          16 max          16 min
Histogram: 2 0 0 0 0 0 0 0 0 0
Nghost:            914 ave         914 max         914 min
Histogram: 2 0 0 0 0 0 0 0 0 0
Neighs:           1639 ave        1874 max        1404 min
Histogram: 1 0 0 0 0 0 0 0 0 1

Total # of neighbors = 3278
Ave neighs/atom = 102.4375
Neighbor list builds = 0
Dangerous builds = 0
variable final_temp_avg equal f_3[1]
variable final_press_avg equal f_3[2]
variable final_vol_avg equal f_3[3]
variable final_etot_avg equal f_3[4]

print "${final_temp_avg} ${final_press_avg} ${final_vol_avg} ${final_etot_avg}" append ${prallfile}
print "${final_temp_avg} ${final_press_avg} ${final_vol_avg} ${final_etot_avg}" append prall.txt
922.718137050595 800134.174295025 396.495567079563 -2.75184975029901

unfix 3
unfix 4
#unfix 1

next i
jump Ramp.txt.in LoopStart
variable i loop ${LoopSize}
variable i loop 21
print " "
 
print "*******LOOP # $i*********"
*******LOOP # 3*********
print " "
 
variable tempvar equal ${TempStep}*${i}+${TempInitial}-${TempStep}
variable tempvar equal 25*${i}+${TempInitial}-${TempStep}
variable tempvar equal 25*3+${TempInitial}-${TempStep}
variable tempvar equal 25*3+900-${TempStep}
variable tempvar equal 25*3+900-25
variable rampup_eqavgfile string rampup_eqavg_${tempvar}.txt
variable rampup_eqavgfile string rampup_eqavg_950.txt
variable rampup_pravgfile string rampup_pravg_${tempvar}.txt
variable rampup_pravgfile string rampup_pravg_950.txt
# variable rampup_eqfile string rampup_eq_${tempvar}.txt

# NPT Equilibration run at temperature
reset_timestep 0
variable eqrunl equal 1E4 # Keep > 10000 to avoid crashing fix lines below for time avg output
fix 1 all npt temp ${tempvar} ${tempvar} 0.1 iso 800000 800000 1 drag 1 # npt ensemble molecular dynamics.
fix 1 all npt temp 950 ${tempvar} 0.1 iso 800000 800000 1 drag 1 
fix 1 all npt temp 950 950 0.1 iso 800000 800000 1 drag 1 

fix 2 all ave/time 1 10 10 c_mytemp c_mypress v_vmyvol v_avgEtotal file ${rampup_eqavgfile}
fix 2 all ave/time 1 10 10 c_mytemp c_mypress v_vmyvol v_avgEtotal file rampup_eqavg_950.txt
# print to file average of every 10 steps. Every 10 femptoseconds


# fix 3 all ave/time 1 10000 10000 c_mytemp c_mypress v_vmyvol v_avgEtotal file ${rampup_eqfile}
thermo 1000 # Print every "thermo" timesteps
run ${eqrunl}
run 10000
Per MPI rank memory allocation (min/avg/max) = 3.605 | 3.605 | 3.605 Mbytes
   Step          Time           Temp          PotEng         KinEng         TotEng        c_mytemp      c_mypress        Volume    
         0   0              771.20984     -90.790354      3.0902876     -87.700066      771.20984      876839.24      395.52359    
      1000   1              885.89139     -91.200374      3.5498239     -87.65055       885.89139      873930.87      395.97452    
      2000   2              899.50672     -91.101881      3.6043815     -87.4975        899.50672      848447.85      395.7889     
      3000   3              921.93816     -92.01936       3.6942657     -88.325094      921.93816      705509.99      397.60095    
      4000   4              877.42966     -90.884909      3.5159172     -87.368991      877.42966      886376.49      395.47221    
      5000   5              979.3838      -91.457286      3.9244541     -87.532832      979.3838       865557.47      395.90233    
      6000   6              963.80712     -91.311133      3.8620373     -87.449096      963.80712      875736.42      395.81313    
      7000   7              837.4669      -91.702904      3.3557839     -88.34712       837.4669       699074.25      397.52033    
      8000   8              1023.329      -91.99129       4.1005454     -87.890744      1023.329       761283.88      396.69806    
      9000   9              1077.3789     -91.862357      4.3171268     -87.54523       1077.3789      834509.19      395.98401    
     10000   10             1081.6273     -92.157988      4.3341502     -87.823838      1081.6273      803771.83      396.47597    
Loop time of 0.950923 on 2 procs for 10000 steps with 32 atoms

Performance: 908.591 ns/day, 0.026 hours/ns, 10516.095 timesteps/s
97.4% CPU use with 2 MPI tasks x 1 OpenMP threads

MPI task timing breakdown:
Section |  min time  |  avg time  |  max time  |%varavg| %total
---------------------------------------------------------------
Pair    | 0.61876    | 0.65885    | 0.69894    |   4.9 | 69.29
Neigh   | 0          | 0          | 0          |   0.0 |  0.00
Comm    | 0.10803    | 0.14845    | 0.18887    |  10.5 | 15.61
Output  | 0.00011312 | 0.00014669 | 0.00018025 |   0.0 |  0.02
Modify  | 0.13267    | 0.13379    | 0.13491    |   0.3 | 14.07
Other   |            | 0.009687   |            |       |  1.02

Nlocal:             16 ave          16 max          16 min
Histogram: 2 0 0 0 0 0 0 0 0 0
Nghost:            914 ave         914 max         914 min
Histogram: 2 0 0 0 0 0 0 0 0 0
Neighs:         1630.5 ave        1901 max        1360 min
Histogram: 1 0 0 0 0 0 0 0 0 1

Total # of neighbors = 3261
Ave neighs/atom = 101.90625
Neighbor list builds = 0
Dangerous builds = 0
unfix 2
# unfix 3

# NPT Production run at temperature
reset_timestep 0
variable prrunl equal 1E4
fix 3 all ave/time 1 10000 10000 c_mytemp c_mypress v_vmyvol v_avgEtotal
fix 4 all ave/time 1 10 10 c_mytemp c_mypress v_vmyvol v_avgEtotal file ${rampup_pravgfile}
fix 4 all ave/time 1 10 10 c_mytemp c_mypress v_vmyvol v_avgEtotal file rampup_pravg_950.txt
# print to file average of every 10 steps. Every 10 femptoseconds

thermo 1000 # Print every "thermo" timesteps
run ${prrunl}
run 10000
Per MPI rank memory allocation (min/avg/max) = 3.605 | 3.605 | 3.605 Mbytes
   Step          Time           Temp          PotEng         KinEng         TotEng        c_mytemp      c_mypress        Volume    
         0   0              1081.6273     -92.157988      4.3341502     -87.823838      1081.6273      803771.83      396.47597    
      1000   1              811.20923     -91.281694      3.2505677     -88.031127      811.20923      770127.03      396.62293    
      2000   2              939.69475     -92.053149      3.7654175     -88.287731      939.69475      750473.55      397.12712    
      3000   3              966.11771     -91.544237      3.871296      -87.672942      966.11771      875910.23      395.92283    
      4000   4              1080.852      -92.357148      4.3310435     -88.026104      1080.852       755709.22      396.92273    
      5000   5              1024.3568     -92.117959      4.1046638     -88.013295      1024.3568      767707.25      396.77426    
      6000   6              1048.5622     -91.777404      4.2016564     -87.575747      1048.5622      880660.78      396.06729    
      7000   7              1038.9811     -91.916261      4.1632644     -87.752996      1038.9811      800764.16      396.21976    
      8000   8              817.75124     -90.94961       3.2767819     -87.672828      817.75124      915384.26      396.17303    
      9000   9              800.55166     -91.178298      3.2078621     -87.970436      800.55166      814861.15      396.89475    
     10000   10             837.43488     -91.242444      3.3556556     -87.886789      837.43488      809506.76      396.51767    
Loop time of 1.01287 on 2 procs for 10000 steps with 32 atoms

Performance: 853.021 ns/day, 0.028 hours/ns, 9872.929 timesteps/s
97.5% CPU use with 2 MPI tasks x 1 OpenMP threads

MPI task timing breakdown:
Section |  min time  |  avg time  |  max time  |%varavg| %total
---------------------------------------------------------------
Pair    | 0.61223    | 0.65684    | 0.70144    |   5.5 | 64.85
Neigh   | 0          | 0          | 0          |   0.0 |  0.00
Comm    | 0.10118    | 0.14669    | 0.1922     |  11.9 | 14.48
Output  | 0.00015376 | 0.00039722 | 0.00064067 |   0.0 |  0.04
Modify  | 0.1985     | 0.19882    | 0.19913    |   0.1 | 19.63
Other   |            | 0.01013    |            |       |  1.00

Nlocal:             16 ave          16 max          16 min
Histogram: 2 0 0 0 0 0 0 0 0 0
Nghost:            914 ave         914 max         914 min
Histogram: 2 0 0 0 0 0 0 0 0 0
Neighs:         1633.5 ave        1898 max        1369 min
Histogram: 1 0 0 0 0 0 0 0 0 1

Total # of neighbors = 3267
Ave neighs/atom = 102.09375
Neighbor list builds = 0
Dangerous builds = 0
variable final_temp_avg equal f_3[1]
variable final_press_avg equal f_3[2]
variable final_vol_avg equal f_3[3]
variable final_etot_avg equal f_3[4]

print "${final_temp_avg} ${final_press_avg} ${final_vol_avg} ${final_etot_avg}" append ${prallfile}
print "${final_temp_avg} ${final_press_avg} ${final_vol_avg} ${final_etot_avg}" append prall.txt
948.162501300024 800013.949214065 396.681942433441 -2.7481896491852

unfix 3
unfix 4
#unfix 1

next i
jump Ramp.txt.in LoopStart
variable i loop ${LoopSize}
variable i loop 21
print " "
 
print "*******LOOP # $i*********"
*******LOOP # 4*********
print " "
 
variable tempvar equal ${TempStep}*${i}+${TempInitial}-${TempStep}
variable tempvar equal 25*${i}+${TempInitial}-${TempStep}
variable tempvar equal 25*4+${TempInitial}-${TempStep}
variable tempvar equal 25*4+900-${TempStep}
variable tempvar equal 25*4+900-25
variable rampup_eqavgfile string rampup_eqavg_${tempvar}.txt
variable rampup_eqavgfile string rampup_eqavg_975.txt
variable rampup_pravgfile string rampup_pravg_${tempvar}.txt
variable rampup_pravgfile string rampup_pravg_975.txt
# variable rampup_eqfile string rampup_eq_${tempvar}.txt

# NPT Equilibration run at temperature
reset_timestep 0
variable eqrunl equal 1E4 # Keep > 10000 to avoid crashing fix lines below for time avg output
fix 1 all npt temp ${tempvar} ${tempvar} 0.1 iso 800000 800000 1 drag 1 # npt ensemble molecular dynamics.
fix 1 all npt temp 975 ${tempvar} 0.1 iso 800000 800000 1 drag 1 
fix 1 all npt temp 975 975 0.1 iso 800000 800000 1 drag 1 

fix 2 all ave/time 1 10 10 c_mytemp c_mypress v_vmyvol v_avgEtotal file ${rampup_eqavgfile}
fix 2 all ave/time 1 10 10 c_mytemp c_mypress v_vmyvol v_avgEtotal file rampup_eqavg_975.txt
# print to file average of every 10 steps. Every 10 femptoseconds


# fix 3 all ave/time 1 10000 10000 c_mytemp c_mypress v_vmyvol v_avgEtotal file ${rampup_eqfile}
thermo 1000 # Print every "thermo" timesteps
run ${eqrunl}
run 10000
Per MPI rank memory allocation (min/avg/max) = 3.605 | 3.605 | 3.605 Mbytes
   Step          Time           Temp          PotEng         KinEng         TotEng        c_mytemp      c_mypress        Volume    
         0   0              837.43488     -91.242444      3.3556556     -87.886789      837.43488      809506.76      396.51767    
      1000   1              1148.9965     -91.76159       4.6041032     -87.157487      1148.9965      888953.02      395.33209    
      2000   2              1171.6183     -92.558998      4.6947503     -87.864248      1171.6183      755597.82      396.69066    
      3000   3              995.61058     -91.767554      3.9894758     -87.778078      995.61058      795574.07      396.66323    
      4000   4              1017.7829     -92.096764      4.0783216     -88.018443      1017.7829      728774.18      397.27996    
      5000   5              894.62877     -91.541954      3.5848352     -87.957118      894.62877      737751.99      397.148      
      6000   6              985.45139     -91.607041      3.9487673     -87.658274      985.45139      784831.31      396.42275    
      7000   7              965.96392     -91.458774      3.8706797     -87.588095      965.96392      819251.38      396.38604    
      8000   8              978.79926     -91.878926      3.9221117     -87.956814      978.79926      767267.22      397.05819    
      9000   9              933.50248     -91.798409      3.7406047     -88.057804      933.50248      716321.26      397.14742    
     10000   10             1030.306      -91.787634      4.1285025     -87.659132      1030.306       786920.58      396.253      
Loop time of 1.05878 on 2 procs for 10000 steps with 32 atoms

Performance: 816.032 ns/day, 0.029 hours/ns, 9444.812 timesteps/s
97.5% CPU use with 2 MPI tasks x 1 OpenMP threads

MPI task timing breakdown:
Section |  min time  |  avg time  |  max time  |%varavg| %total
---------------------------------------------------------------
Pair    | 0.60535    | 0.70046    | 0.79557    |  11.4 | 66.16
Neigh   | 0          | 0          | 0          |   0.0 |  0.00
Comm    | 0.10862    | 0.20368    | 0.29874    |  21.1 | 19.24
Output  | 8.2846e-05 | 0.00011983 | 0.00015682 |   0.0 |  0.01
Modify  | 0.1421     | 0.14299    | 0.14389    |   0.2 | 13.51
Other   |            | 0.01153    |            |       |  1.09

Nlocal:             16 ave          18 max          14 min
Histogram: 1 0 0 0 0 0 0 0 0 1
Nghost:            914 ave         916 max         912 min
Histogram: 1 0 0 0 0 0 0 0 0 1
Neighs:           1627 ave        2070 max        1184 min
Histogram: 1 0 0 0 0 0 0 0 0 1

Total # of neighbors = 3254
Ave neighs/atom = 101.6875
Neighbor list builds = 0
Dangerous builds = 0
unfix 2
# unfix 3

# NPT Production run at temperature
reset_timestep 0
variable prrunl equal 1E4
fix 3 all ave/time 1 10000 10000 c_mytemp c_mypress v_vmyvol v_avgEtotal
fix 4 all ave/time 1 10 10 c_mytemp c_mypress v_vmyvol v_avgEtotal file ${rampup_pravgfile}
fix 4 all ave/time 1 10 10 c_mytemp c_mypress v_vmyvol v_avgEtotal file rampup_pravg_975.txt
# print to file average of every 10 steps. Every 10 femptoseconds

thermo 1000 # Print every "thermo" timesteps
run ${prrunl}
run 10000
Per MPI rank memory allocation (min/avg/max) = 3.605 | 3.605 | 3.605 Mbytes
   Step          Time           Temp          PotEng         KinEng         TotEng        c_mytemp      c_mypress        Volume    
         0   0              1030.306      -91.787634      4.1285025     -87.659132      1030.306       786920.58      396.253      
      1000   1              879.21701     -91.165544      3.5230793     -87.642465      879.21701      817101.16      396.42347    
      2000   2              1113.2692     -91.83849       4.4609415     -87.377548      1113.2692      824907.72      395.87324    
      3000   3              739.13612     -90.297365      2.9617661     -87.335599      739.13612      941373.43      395.7376     
      4000   4              934.65626     -91.328174      3.7452279     -87.582946      934.65626      816425.05      396.15915    
      5000   5              1018.3013     -91.715886      4.080399      -87.635487      1018.3013      839636.24      396.58999    
      6000   6              911.41108     -91.062676      3.652083      -87.410593      911.41108      883367.31      396.09303    
      7000   7              938.88442     -90.837316      3.7621704     -87.075146      938.88442      932430.96      395.48727    
      8000   8              1031.3676     -91.675791      4.1327566     -87.543034      1031.3676      819312.73      396.17872    
      9000   9              977.64737     -90.973866      3.9174961     -87.05637       977.64737      865278         395.27375    
     10000   10             966.08561     -91.599364      3.8711673     -87.728196      966.08561      795879.13      396.6479     
Loop time of 1.08656 on 2 procs for 10000 steps with 32 atoms

Performance: 795.174 ns/day, 0.030 hours/ns, 9203.398 timesteps/s
97.6% CPU use with 2 MPI tasks x 1 OpenMP threads

MPI task timing breakdown:
Section |  min time  |  avg time  |  max time  |%varavg| %total
---------------------------------------------------------------
Pair    | 0.58619    | 0.67783    | 0.76946    |  11.1 | 62.38
Neigh   | 0          | 0          | 0          |   0.0 |  0.00
Comm    | 0.10683    | 0.19792    | 0.28902    |  20.5 | 18.22
Output  | 8.1831e-05 | 0.00011872 | 0.0001556  |   0.0 |  0.01
Modify  | 0.20057    | 0.20083    | 0.20109    |   0.1 | 18.48
Other   |            | 0.009853   |            |       |  0.91

Nlocal:             16 ave          18 max          14 min
Histogram: 1 0 0 0 0 0 0 0 0 1
Nghost:            914 ave         916 max         912 min
Histogram: 1 0 0 0 0 0 0 0 0 1
Neighs:           1635 ave        2130 max        1140 min
Histogram: 1 0 0 0 0 0 0 0 0 1

Total # of neighbors = 3270
Ave neighs/atom = 102.1875
Neighbor list builds = 0
Dangerous builds = 0
variable final_temp_avg equal f_3[1]
variable final_press_avg equal f_3[2]
variable final_vol_avg equal f_3[3]
variable final_etot_avg equal f_3[4]

print "${final_temp_avg} ${final_press_avg} ${final_vol_avg} ${final_etot_avg}" append ${prallfile}
print "${final_temp_avg} ${final_press_avg} ${final_vol_avg} ${final_etot_avg}" append prall.txt
973.53027482907 799820.559867796 396.586250991687 -2.74131216546408

unfix 3
unfix 4
#unfix 1

next i
jump Ramp.txt.in LoopStart
variable i loop ${LoopSize}
variable i loop 21
print " "
 
print "*******LOOP # $i*********"
*******LOOP # 5*********
print " "
 
variable tempvar equal ${TempStep}*${i}+${TempInitial}-${TempStep}
variable tempvar equal 25*${i}+${TempInitial}-${TempStep}
variable tempvar equal 25*5+${TempInitial}-${TempStep}
variable tempvar equal 25*5+900-${TempStep}
variable tempvar equal 25*5+900-25
variable rampup_eqavgfile string rampup_eqavg_${tempvar}.txt
variable rampup_eqavgfile string rampup_eqavg_1000.txt
variable rampup_pravgfile string rampup_pravg_${tempvar}.txt
variable rampup_pravgfile string rampup_pravg_1000.txt
# variable rampup_eqfile string rampup_eq_${tempvar}.txt

# NPT Equilibration run at temperature
reset_timestep 0
variable eqrunl equal 1E4 # Keep > 10000 to avoid crashing fix lines below for time avg output
fix 1 all npt temp ${tempvar} ${tempvar} 0.1 iso 800000 800000 1 drag 1 # npt ensemble molecular dynamics.
fix 1 all npt temp 1000 ${tempvar} 0.1 iso 800000 800000 1 drag 1 
fix 1 all npt temp 1000 1000 0.1 iso 800000 800000 1 drag 1 

fix 2 all ave/time 1 10 10 c_mytemp c_mypress v_vmyvol v_avgEtotal file ${rampup_eqavgfile}
fix 2 all ave/time 1 10 10 c_mytemp c_mypress v_vmyvol v_avgEtotal file rampup_eqavg_1000.txt
# print to file average of every 10 steps. Every 10 femptoseconds


# fix 3 all ave/time 1 10000 10000 c_mytemp c_mypress v_vmyvol v_avgEtotal file ${rampup_eqfile}
thermo 1000 # Print every "thermo" timesteps
run ${eqrunl}
run 10000
Per MPI rank memory allocation (min/avg/max) = 3.605 | 3.605 | 3.605 Mbytes
   Step          Time           Temp          PotEng         KinEng         TotEng        c_mytemp      c_mypress        Volume    
         0   0              966.08561     -91.599364      3.8711673     -87.728196      966.08561      795879.13      396.6479     
      1000   1              1136.7781     -92.146004      4.5551432     -87.590861      1136.7781      794587.29      396.71825    
      2000   2              1074.3515     -91.796812      4.3049957     -87.491816      1074.3515      814006.87      396.71695    
      3000   3              1040.8347     -91.184776      4.1706916     -87.014084      1040.8347      939444.78      395.74713    
      4000   4              852.77618     -91.567514      3.4171291     -88.150385      852.77618      706000.02      397.6131     
      5000   5              1096.1444     -92.886277      4.3923214     -88.493956      1096.1444      632543.56      398.4012     
      6000   6              966.98123     -90.406129      3.8747562     -86.531373      966.98123      963266.95      394.78731    
      7000   7              894.17525     -91.334907      3.5830179     -87.751889      894.17525      759386.3       397.17047    
      8000   8              990.00899     -91.302725      3.9670299     -87.335695      990.00899      863272.6       396.29134    
      9000   9              1033.306      -91.442736      4.1405239     -87.302212      1033.306       832059.55      396.17967    
     10000   10             989.9441      -91.217951      3.9667699     -87.251181      989.9441       844653.26      396.01529    
Loop time of 0.964207 on 2 procs for 10000 steps with 32 atoms

Performance: 896.073 ns/day, 0.027 hours/ns, 10371.221 timesteps/s
97.1% CPU use with 2 MPI tasks x 1 OpenMP threads

MPI task timing breakdown:
Section |  min time  |  avg time  |  max time  |%varavg| %total
---------------------------------------------------------------
Pair    | 0.61398    | 0.66359    | 0.71319    |   6.1 | 68.82
Neigh   | 0          | 0          | 0          |   0.0 |  0.00
Comm    | 0.10565    | 0.15606    | 0.20648    |  12.8 | 16.19
Output  | 8.8178e-05 | 0.00012368 | 0.00015919 |   0.0 |  0.01
Modify  | 0.13472    | 0.13536    | 0.13599    |   0.2 | 14.04
Other   |            | 0.009076   |            |       |  0.94

Nlocal:             16 ave          17 max          15 min
Histogram: 1 0 0 0 0 0 0 0 0 1
Nghost:            914 ave         915 max         913 min
Histogram: 1 0 0 0 0 0 0 0 0 1
Neighs:           1635 ave        1897 max        1373 min
Histogram: 1 0 0 0 0 0 0 0 0 1

Total # of neighbors = 3270
Ave neighs/atom = 102.1875
Neighbor list builds = 0
Dangerous builds = 0
unfix 2
# unfix 3

# NPT Production run at temperature
reset_timestep 0
variable prrunl equal 1E4
fix 3 all ave/time 1 10000 10000 c_mytemp c_mypress v_vmyvol v_avgEtotal
fix 4 all ave/time 1 10 10 c_mytemp c_mypress v_vmyvol v_avgEtotal file ${rampup_pravgfile}
fix 4 all ave/time 1 10 10 c_mytemp c_mypress v_vmyvol v_avgEtotal file rampup_pravg_1000.txt
# print to file average of every 10 steps. Every 10 femptoseconds

thermo 1000 # Print every "thermo" timesteps
run ${prrunl}
run 10000
Per MPI rank memory allocation (min/avg/max) = 3.605 | 3.605 | 3.605 Mbytes
   Step          Time           Temp          PotEng         KinEng         TotEng        c_mytemp      c_mypress        Volume    
         0   0              989.9441      -91.217951      3.9667699     -87.251181      989.9441       844653.26      396.01529    
      1000   1              981.69804     -91.565818      3.9337274     -87.632091      981.69804      802271.6       396.54541    
      2000   2              1016.4534     -91.174818      4.0729944     -87.101824      1016.4534      877438.48      395.83101    
      3000   3              1164.3071     -92.390651      4.6654538     -87.725197      1164.3071      742090.05      397.13188    
      4000   4              1047.0046     -92.912741      4.1954148     -88.717327      1047.0046      635693.44      398.88287    
      5000   5              905.14901     -91.904474      3.6269905     -88.277483      905.14901      670074.34      398.02546    
      6000   6              1163.928      -92.354275      4.6639345     -87.690341      1163.928       763244.56      396.96909    
      7000   7              1208.3606     -92.36915       4.8419789     -87.527171      1208.3606      779193.85      396.45126    
      8000   8              892.0418      -90.849868      3.574469      -87.275399      892.0418       909106.4       395.96165    
      9000   9              1077.3407     -91.855252      4.3169737     -87.538278      1077.3407      779117.47      396.67506    
     10000   10             974.952       -90.360404      3.9066956     -86.453709      974.952        977336.07      394.64047    
Loop time of 1.1116 on 2 procs for 10000 steps with 32 atoms

Performance: 777.260 ns/day, 0.031 hours/ns, 8996.065 timesteps/s
97.7% CPU use with 2 MPI tasks x 1 OpenMP threads

MPI task timing breakdown:
Section |  min time  |  avg time  |  max time  |%varavg| %total
---------------------------------------------------------------
Pair    | 0.6032     | 0.69748    | 0.79175    |  11.3 | 62.75
Neigh   | 4.0116e-05 | 4.9639e-05 | 5.9162e-05 |   0.0 |  0.00
Comm    | 0.10792    | 0.20159    | 0.29526    |  20.9 | 18.14
Output  | 0.00015698 | 0.00040399 | 0.000651   |   0.0 |  0.04
Modify  | 0.20188    | 0.20216    | 0.20243    |   0.1 | 18.19
Other   |            | 0.009917   |            |       |  0.89

Nlocal:             16 ave          18 max          14 min
Histogram: 1 0 0 0 0 0 0 0 0 1
Nghost:            914 ave         916 max         912 min
Histogram: 1 0 0 0 0 0 0 0 0 1
Neighs:         1632.5 ave        2103 max        1162 min
Histogram: 1 0 0 0 0 0 0 0 0 1

Total # of neighbors = 3265
Ave neighs/atom = 102.03125
Neighbor list builds = 1
Dangerous builds = 0
variable final_temp_avg equal f_3[1]
variable final_press_avg equal f_3[2]
variable final_vol_avg equal f_3[3]
variable final_etot_avg equal f_3[4]

print "${final_temp_avg} ${final_press_avg} ${final_vol_avg} ${final_etot_avg}" append ${prallfile}
print "${final_temp_avg} ${final_press_avg} ${final_vol_avg} ${final_etot_avg}" append prall.txt
997.282626939755 799867.802312637 396.689612550544 -2.73673796332262

unfix 3
unfix 4
#unfix 1

next i
jump Ramp.txt.in LoopStart
variable i loop ${LoopSize}
variable i loop 21
print " "
 
print "*******LOOP # $i*********"
*******LOOP # 6*********
print " "
 
variable tempvar equal ${TempStep}*${i}+${TempInitial}-${TempStep}
variable tempvar equal 25*${i}+${TempInitial}-${TempStep}
variable tempvar equal 25*6+${TempInitial}-${TempStep}
variable tempvar equal 25*6+900-${TempStep}
variable tempvar equal 25*6+900-25
variable rampup_eqavgfile string rampup_eqavg_${tempvar}.txt
variable rampup_eqavgfile string rampup_eqavg_1025.txt
variable rampup_pravgfile string rampup_pravg_${tempvar}.txt
variable rampup_pravgfile string rampup_pravg_1025.txt
# variable rampup_eqfile string rampup_eq_${tempvar}.txt

# NPT Equilibration run at temperature
reset_timestep 0
variable eqrunl equal 1E4 # Keep > 10000 to avoid crashing fix lines below for time avg output
fix 1 all npt temp ${tempvar} ${tempvar} 0.1 iso 800000 800000 1 drag 1 # npt ensemble molecular dynamics.
fix 1 all npt temp 1025 ${tempvar} 0.1 iso 800000 800000 1 drag 1 
fix 1 all npt temp 1025 1025 0.1 iso 800000 800000 1 drag 1 

fix 2 all ave/time 1 10 10 c_mytemp c_mypress v_vmyvol v_avgEtotal file ${rampup_eqavgfile}
fix 2 all ave/time 1 10 10 c_mytemp c_mypress v_vmyvol v_avgEtotal file rampup_eqavg_1025.txt
# print to file average of every 10 steps. Every 10 femptoseconds


# fix 3 all ave/time 1 10000 10000 c_mytemp c_mypress v_vmyvol v_avgEtotal file ${rampup_eqfile}
thermo 1000 # Print every "thermo" timesteps
run ${eqrunl}
run 10000
Per MPI rank memory allocation (min/avg/max) = 3.605 | 3.605 | 3.605 Mbytes
   Step          Time           Temp          PotEng         KinEng         TotEng        c_mytemp      c_mypress        Volume    
         0   0              974.952       -90.360404      3.9066956     -86.453709      974.952        977336.07      394.64047    
      1000   1              941.33848     -91.441453      3.772004      -87.669449      941.33848      811334.4       397.21973    
      2000   2              1001.0159     -92.151792      4.0111355     -88.140656      1001.0159      659427.54      398.25255    
      3000   3              1109.5245     -91.315683      4.4459362     -86.869747      1109.5245      911644.69      395.82038    
      4000   4              990.3354      -91.640235      3.9683378     -87.671897      990.3354       765504.17      397.17958    
      5000   5              1109.3041     -92.286717      4.4450533     -87.841663      1109.3041      695346.57      397.63458    
      6000   6              915.9256      -90.265624      3.670173      -86.595451      915.9256       959994.15      395.15334    
      7000   7              1034.1042     -92.266394      4.1437224     -88.122671      1034.1042      688584.25      398.14459    
      8000   8              1147.7733     -91.769022      4.5992018     -87.16982       1147.7733      822554.44      396.33169    
      9000   9              900.62347     -90.509896      3.6088563     -86.901039      900.62347      900926.91      395.81306    
     10000   10             1003.7594     -91.913623      4.0221286     -87.891494      1003.7594      754849.62      397.65074    
Loop time of 0.979825 on 2 procs for 10000 steps with 32 atoms

Performance: 881.791 ns/day, 0.027 hours/ns, 10205.909 timesteps/s
97.3% CPU use with 2 MPI tasks x 1 OpenMP threads

MPI task timing breakdown:
Section |  min time  |  avg time  |  max time  |%varavg| %total
---------------------------------------------------------------
Pair    | 0.60107    | 0.66473    | 0.72839    |   7.8 | 67.84
Neigh   | 4.0907e-05 | 5.3451e-05 | 6.5994e-05 |   0.0 |  0.01
Comm    | 0.1074     | 0.17112    | 0.23484    |  15.4 | 17.46
Output  | 8.4402e-05 | 0.0001242  | 0.000164   |   0.0 |  0.01
Modify  | 0.13364    | 0.1343     | 0.13496    |   0.2 | 13.71
Other   |            | 0.009494   |            |       |  0.97

Nlocal:             16 ave          17 max          15 min
Histogram: 1 0 0 0 0 0 0 0 0 1
Nghost:            914 ave         915 max         913 min
Histogram: 1 0 0 0 0 0 0 0 0 1
Neighs:           1631 ave        1993 max        1269 min
Histogram: 1 0 0 0 0 0 0 0 0 1

Total # of neighbors = 3262
Ave neighs/atom = 101.9375
Neighbor list builds = 1
Dangerous builds = 0
unfix 2
# unfix 3

# NPT Production run at temperature
reset_timestep 0
variable prrunl equal 1E4
fix 3 all ave/time 1 10000 10000 c_mytemp c_mypress v_vmyvol v_avgEtotal
fix 4 all ave/time 1 10 10 c_mytemp c_mypress v_vmyvol v_avgEtotal file ${rampup_pravgfile}
fix 4 all ave/time 1 10 10 c_mytemp c_mypress v_vmyvol v_avgEtotal file rampup_pravg_1025.txt
# print to file average of every 10 steps. Every 10 femptoseconds

thermo 1000 # Print every "thermo" timesteps
run ${prrunl}
run 10000
Per MPI rank memory allocation (min/avg/max) = 3.605 | 3.605 | 3.605 Mbytes
   Step          Time           Temp          PotEng         KinEng         TotEng        c_mytemp      c_mypress        Volume    
         0   0              1003.7594     -91.913623      4.0221286     -87.891494      1003.7594      754849.62      397.65074    
      1000   1              1039.8876     -91.535161      4.1668967     -87.368264      1039.8876      815956.24      396.68771    
      2000   2              1141.859      -91.772044      4.5755026     -87.196541      1141.859       799042.25      396.50099    
      3000   3              946.26708     -91.727092      3.7917532     -87.935339      946.26708      710009.99      397.66065    
      4000   4              1074.1511     -92.059841      4.3041928     -87.755648      1074.1511      719598.2       397.6055     
      5000   5              1072.082      -91.249957      4.2959015     -86.954055      1072.082       899521.85      395.55902    
      6000   6              1119.5645     -91.232898      4.4861672     -86.746731      1119.5645      909000.17      395.35668    
      7000   7              1037.9801     -91.372372      4.1592533     -87.213119      1037.9801      844273.13      396.25799    
      8000   8              1128.7241     -92.228135      4.5228701     -87.705265      1128.7241      728633.19      397.20341    
      9000   9              1139.1755     -92.425005      4.5647497     -87.860255      1139.1755      727156.48      397.67088    
     10000   10             928.70164     -91.729014      3.7213674     -88.007646      928.70164      708285.37      398.06092    
Loop time of 1.00761 on 2 procs for 10000 steps with 32 atoms

Performance: 857.477 ns/day, 0.028 hours/ns, 9924.504 timesteps/s
97.6% CPU use with 2 MPI tasks x 1 OpenMP threads

MPI task timing breakdown:
Section |  min time  |  avg time  |  max time  |%varavg| %total
---------------------------------------------------------------
Pair    | 0.66463    | 0.67418    | 0.68373    |   1.2 | 66.91
Neigh   | 0          | 0          | 0          |   0.0 |  0.00
Comm    | 0.10906    | 0.11997    | 0.13088    |   3.1 | 11.91
Output  | 9.7131e-05 | 0.00013591 | 0.00017469 |   0.0 |  0.01
Modify  | 0.20176    | 0.20363    | 0.2055     |   0.4 | 20.21
Other   |            | 0.009697   |            |       |  0.96

Nlocal:             16 ave          18 max          14 min
Histogram: 1 0 0 0 0 0 0 0 0 1
Nghost:            914 ave         916 max         912 min
Histogram: 1 0 0 0 0 0 0 0 0 1
Neighs:         1633.5 ave        1727 max        1540 min
Histogram: 1 0 0 0 0 0 0 0 0 1

Total # of neighbors = 3267
Ave neighs/atom = 102.09375
Neighbor list builds = 0
Dangerous builds = 0
variable final_temp_avg equal f_3[1]
variable final_press_avg equal f_3[2]
variable final_vol_avg equal f_3[3]
variable final_etot_avg equal f_3[4]

print "${final_temp_avg} ${final_press_avg} ${final_vol_avg} ${final_etot_avg}" append ${prallfile}
print "${final_temp_avg} ${final_press_avg} ${final_vol_avg} ${final_etot_avg}" append prall.txt
1022.90728286794 800043.775211479 396.730605980457 -2.73222833965211

unfix 3
unfix 4
#unfix 1

next i
jump Ramp.txt.in LoopStart
variable i loop ${LoopSize}
variable i loop 21
print " "
 
print "*******LOOP # $i*********"
*******LOOP # 7*********
print " "
 
variable tempvar equal ${TempStep}*${i}+${TempInitial}-${TempStep}
variable tempvar equal 25*${i}+${TempInitial}-${TempStep}
variable tempvar equal 25*7+${TempInitial}-${TempStep}
variable tempvar equal 25*7+900-${TempStep}
variable tempvar equal 25*7+900-25
variable rampup_eqavgfile string rampup_eqavg_${tempvar}.txt
variable rampup_eqavgfile string rampup_eqavg_1050.txt
variable rampup_pravgfile string rampup_pravg_${tempvar}.txt
variable rampup_pravgfile string rampup_pravg_1050.txt
# variable rampup_eqfile string rampup_eq_${tempvar}.txt

# NPT Equilibration run at temperature
reset_timestep 0
variable eqrunl equal 1E4 # Keep > 10000 to avoid crashing fix lines below for time avg output
fix 1 all npt temp ${tempvar} ${tempvar} 0.1 iso 800000 800000 1 drag 1 # npt ensemble molecular dynamics.
fix 1 all npt temp 1050 ${tempvar} 0.1 iso 800000 800000 1 drag 1 
fix 1 all npt temp 1050 1050 0.1 iso 800000 800000 1 drag 1 

fix 2 all ave/time 1 10 10 c_mytemp c_mypress v_vmyvol v_avgEtotal file ${rampup_eqavgfile}
fix 2 all ave/time 1 10 10 c_mytemp c_mypress v_vmyvol v_avgEtotal file rampup_eqavg_1050.txt
# print to file average of every 10 steps. Every 10 femptoseconds


# fix 3 all ave/time 1 10000 10000 c_mytemp c_mypress v_vmyvol v_avgEtotal file ${rampup_eqfile}
thermo 1000 # Print every "thermo" timesteps
run ${eqrunl}
run 10000
Per MPI rank memory allocation (min/avg/max) = 3.605 | 3.605 | 3.605 Mbytes
   Step          Time           Temp          PotEng         KinEng         TotEng        c_mytemp      c_mypress        Volume    
         0   0              928.70164     -91.729014      3.7213674     -88.007646      928.70164      708285.37      398.06092    
      1000   1              970.90555     -91.390555      3.8904812     -87.500074      970.90555      765940.28      397.19924    
      2000   2              1025.0221     -91.478107      4.1073295     -87.370777      1025.0221      752674.51      397.10515    
      3000   3              1203.177      -92.306114      4.821208      -87.484906      1203.177       742170.35      397.07091    
      4000   4              1068.879      -91.822412      4.2830672     -87.539345      1068.879       756080.63      397.34863    
      5000   5              903.91575     -90.359891      3.6220487     -86.737842      903.91575      924917.55      395.57953    
      6000   6              942.76208     -91.440135      3.7777085     -87.662426      942.76208      728344.4       397.39976    
      7000   7              1007.1663     -91.107718      4.0357801     -87.071937      1007.1663      842750.21      396.52366    
      8000   8              1008.6575     -91.953565      4.0417557     -87.91181       1008.6575      736426.13      398.20355    
      9000   9              1024.4613     -90.721925      4.1050826     -86.616842      1024.4613      912711.32      395.65023    
     10000   10             1022.8795     -90.886923      4.0987443     -86.788179      1022.8795      896261.55      395.87352    
Loop time of 0.972776 on 2 procs for 10000 steps with 32 atoms

Performance: 888.180 ns/day, 0.027 hours/ns, 10279.862 timesteps/s
97.9% CPU use with 2 MPI tasks x 1 OpenMP threads

MPI task timing breakdown:
Section |  min time  |  avg time  |  max time  |%varavg| %total
---------------------------------------------------------------
Pair    | 0.59085    | 0.65835    | 0.72585    |   8.3 | 67.68
Neigh   | 0.00011622 | 0.0001463  | 0.00017638 |   0.0 |  0.02
Comm    | 0.10339    | 0.1709     | 0.2384     |  16.3 | 17.57
Output  | 0.00015676 | 0.00040481 | 0.00065286 |   0.0 |  0.04
Modify  | 0.13202    | 0.13322    | 0.13442    |   0.3 | 13.70
Other   |            | 0.009756   |            |       |  1.00

Nlocal:             16 ave          18 max          14 min
Histogram: 1 0 0 0 0 0 0 0 0 1
Nghost:            914 ave         916 max         912 min
Histogram: 1 0 0 0 0 0 0 0 0 1
Neighs:         1641.5 ave        2140 max        1143 min
Histogram: 1 0 0 0 0 0 0 0 0 1

Total # of neighbors = 3283
Ave neighs/atom = 102.59375
Neighbor list builds = 3
Dangerous builds = 0
unfix 2
# unfix 3

# NPT Production run at temperature
reset_timestep 0
variable prrunl equal 1E4
fix 3 all ave/time 1 10000 10000 c_mytemp c_mypress v_vmyvol v_avgEtotal
fix 4 all ave/time 1 10 10 c_mytemp c_mypress v_vmyvol v_avgEtotal file ${rampup_pravgfile}
fix 4 all ave/time 1 10 10 c_mytemp c_mypress v_vmyvol v_avgEtotal file rampup_pravg_1050.txt
# print to file average of every 10 steps. Every 10 femptoseconds

thermo 1000 # Print every "thermo" timesteps
run ${prrunl}
run 10000
Per MPI rank memory allocation (min/avg/max) = 3.605 | 3.605 | 3.605 Mbytes
   Step          Time           Temp          PotEng         KinEng         TotEng        c_mytemp      c_mypress        Volume    
         0   0              1022.8795     -90.886923      4.0987443     -86.788179      1022.8795      896261.55      395.87352    
      1000   1              1063.0543     -90.877435      4.2597271     -86.617708      1063.0543      958723.1       395.62079    
      2000   2              961.91855     -91.22112       3.8544697     -87.366651      961.91855      858348.11      397.13544    
      3000   3              1058.5803     -91.830626      4.2417996     -87.588827      1058.5803      711218.49      397.47336    
      4000   4              1111.1065     -91.182625      4.4522755     -86.730349      1111.1065      882649.07      395.76629    
      5000   5              1169.0507     -92.542526      4.6844614     -87.858064      1169.0507      688904.09      397.80728    
      6000   6              1090.6411     -91.902481      4.3702691     -87.532212      1090.6411      751594.42      397.29152    
      7000   7              1109.8223     -91.471546      4.4471294     -87.024416      1109.8223      828068.21      396.29771    
      8000   8              882.88498     -91.464989      3.5377771     -87.927212      882.88498      793329.84      398.28279    
      9000   9              1189.8307     -91.583204      4.7677282     -86.815475      1189.8307      845473.41      396.01209    
     10000   10             1139.1814     -91.729157      4.5647733     -87.164384      1139.1814      769742.76      396.75383    
Loop time of 1.08607 on 2 procs for 10000 steps with 32 atoms

Performance: 795.529 ns/day, 0.030 hours/ns, 9207.511 timesteps/s
97.7% CPU use with 2 MPI tasks x 1 OpenMP threads

MPI task timing breakdown:
Section |  min time  |  avg time  |  max time  |%varavg| %total
---------------------------------------------------------------
Pair    | 0.60101    | 0.6825     | 0.76399    |   9.9 | 62.84
Neigh   | 8.8166e-05 | 0.00010358 | 0.00011899 |   0.0 |  0.01
Comm    | 0.11026    | 0.19197    | 0.27369    |  18.6 | 17.68
Output  | 8.0393e-05 | 0.00011593 | 0.00015147 |   0.0 |  0.01
Modify  | 0.19872    | 0.20055    | 0.20239    |   0.4 | 18.47
Other   |            | 0.01082    |            |       |  1.00

Nlocal:             16 ave          17 max          15 min
Histogram: 1 0 0 0 0 0 0 0 0 1
Nghost:            914 ave         915 max         913 min
Histogram: 1 0 0 0 0 0 0 0 0 1
Neighs:         1630.5 ave        2017 max        1244 min
Histogram: 1 0 0 0 0 0 0 0 0 1

Total # of neighbors = 3261
Ave neighs/atom = 101.90625
Neighbor list builds = 2
Dangerous builds = 0
variable final_temp_avg equal f_3[1]
variable final_press_avg equal f_3[2]
variable final_vol_avg equal f_3[3]
variable final_etot_avg equal f_3[4]

print "${final_temp_avg} ${final_press_avg} ${final_vol_avg} ${final_etot_avg}" append ${prallfile}
print "${final_temp_avg} ${final_press_avg} ${final_vol_avg} ${final_etot_avg}" append prall.txt
1047.62709964936 799939.475823568 396.892388184683 -2.72784030871659

unfix 3
unfix 4
#unfix 1

next i
jump Ramp.txt.in LoopStart
variable i loop ${LoopSize}
variable i loop 21
print " "
 
print "*******LOOP # $i*********"
*******LOOP # 8*********
print " "
 
variable tempvar equal ${TempStep}*${i}+${TempInitial}-${TempStep}
variable tempvar equal 25*${i}+${TempInitial}-${TempStep}
variable tempvar equal 25*8+${TempInitial}-${TempStep}
variable tempvar equal 25*8+900-${TempStep}
variable tempvar equal 25*8+900-25
variable rampup_eqavgfile string rampup_eqavg_${tempvar}.txt
variable rampup_eqavgfile string rampup_eqavg_1075.txt
variable rampup_pravgfile string rampup_pravg_${tempvar}.txt
variable rampup_pravgfile string rampup_pravg_1075.txt
# variable rampup_eqfile string rampup_eq_${tempvar}.txt

# NPT Equilibration run at temperature
reset_timestep 0
variable eqrunl equal 1E4 # Keep > 10000 to avoid crashing fix lines below for time avg output
fix 1 all npt temp ${tempvar} ${tempvar} 0.1 iso 800000 800000 1 drag 1 # npt ensemble molecular dynamics.
fix 1 all npt temp 1075 ${tempvar} 0.1 iso 800000 800000 1 drag 1 
fix 1 all npt temp 1075 1075 0.1 iso 800000 800000 1 drag 1 

fix 2 all ave/time 1 10 10 c_mytemp c_mypress v_vmyvol v_avgEtotal file ${rampup_eqavgfile}
fix 2 all ave/time 1 10 10 c_mytemp c_mypress v_vmyvol v_avgEtotal file rampup_eqavg_1075.txt
# print to file average of every 10 steps. Every 10 femptoseconds


# fix 3 all ave/time 1 10000 10000 c_mytemp c_mypress v_vmyvol v_avgEtotal file ${rampup_eqfile}
thermo 1000 # Print every "thermo" timesteps
run ${eqrunl}
run 10000
Per MPI rank memory allocation (min/avg/max) = 3.605 | 3.605 | 3.605 Mbytes
   Step          Time           Temp          PotEng         KinEng         TotEng        c_mytemp      c_mypress        Volume    
         0   0              1139.1814     -91.729157      4.5647733     -87.164384      1139.1814      769742.76      396.75383    
      1000   1              1267.8943     -92.490458      5.0805341     -87.409924      1267.8943      695764.43      397.5212     
      2000   2              1253.3959     -91.913633      5.0224384     -86.891195      1253.3959      770528.49      396.38487    
      3000   3              1063.4875     -90.832318      4.2614631     -86.570855      1063.4875      918835.21      395.84226    
      4000   4              841.29834     -90.947232      3.3711367     -87.576095      841.29834      757386.43      397.85722    
      5000   5              1146.7126     -91.882469      4.5949515     -87.287518      1146.7126      734353.08      397.13207    
      6000   6              1098.2581     -92.180352      4.4007912     -87.779561      1098.2581      674103.08      398.08932    
      7000   7              1115.1155     -91.460536      4.4683395     -86.992197      1115.1155      811116.65      396.6323     
      8000   8              997.29634     -90.594605      3.9962308     -86.598375      997.29634      923176.2       395.67495    
      9000   9              991.49108     -91.207498      3.9729687     -87.234529      991.49108      776251.75      397.1753     
     10000   10             1189.2653     -92.116258      4.7654626     -87.350796      1189.2653      709788.27      397.35603    
Loop time of 0.996418 on 2 procs for 10000 steps with 32 atoms

Performance: 867.106 ns/day, 0.028 hours/ns, 10035.954 timesteps/s
97.5% CPU use with 2 MPI tasks x 1 OpenMP threads

MPI task timing breakdown:
Section |  min time  |  avg time  |  max time  |%varavg| %total
---------------------------------------------------------------
Pair    | 0.59183    | 0.66973    | 0.74763    |   9.5 | 67.21
Neigh   | 0          | 0          | 0          |   0.0 |  0.00
Comm    | 0.10303    | 0.18109    | 0.25915    |  18.3 | 18.17
Output  | 7.9922e-05 | 0.00011637 | 0.00015282 |   0.0 |  0.01
Modify  | 0.13445    | 0.1356     | 0.13676    |   0.3 | 13.61
Other   |            | 0.009882   |            |       |  0.99

Nlocal:             16 ave          17 max          15 min
Histogram: 1 0 0 0 0 0 0 0 0 1
Nghost:            914 ave         915 max         913 min
Histogram: 1 0 0 0 0 0 0 0 0 1
Neighs:           1628 ave        1992 max        1264 min
Histogram: 1 0 0 0 0 0 0 0 0 1

Total # of neighbors = 3256
Ave neighs/atom = 101.75
Neighbor list builds = 0
Dangerous builds = 0
unfix 2
# unfix 3

# NPT Production run at temperature
reset_timestep 0
variable prrunl equal 1E4
fix 3 all ave/time 1 10000 10000 c_mytemp c_mypress v_vmyvol v_avgEtotal
fix 4 all ave/time 1 10 10 c_mytemp c_mypress v_vmyvol v_avgEtotal file ${rampup_pravgfile}
fix 4 all ave/time 1 10 10 c_mytemp c_mypress v_vmyvol v_avgEtotal file rampup_pravg_1075.txt
# print to file average of every 10 steps. Every 10 femptoseconds

thermo 1000 # Print every "thermo" timesteps
run ${prrunl}
run 10000
Per MPI rank memory allocation (min/avg/max) = 3.605 | 3.605 | 3.605 Mbytes
   Step          Time           Temp          PotEng         KinEng         TotEng        c_mytemp      c_mypress        Volume    
         0   0              1189.2653     -92.116258      4.7654626     -87.350796      1189.2653      709788.27      397.35603    
      1000   1              1124.7742     -90.876194      4.5070429     -86.369152      1124.7742      947741.32      395.38512    
      2000   2              1007.1278     -91.03215       4.0356261     -86.996524      1007.1278      828482.29      396.52199    
      3000   3              948.23944     -90.854586      3.7996566     -87.054929      948.23944      878663.68      396.68694    
      4000   4              1123.5061     -92.479441      4.5019614     -87.97748       1123.5061      665922.03      398.74798    
      5000   5              1325.5105     -91.896532      5.311406      -86.585126      1325.5105      854434.79      395.93041    
      6000   6              1216.1212     -91.648904      4.8730761     -86.775828      1216.1212      836705.17      396.329      
      7000   7              990.14883     -90.961052      3.9675902     -86.993462      990.14883      833956.05      396.57311    
      8000   8              1126.9098     -91.25034       4.5156003     -86.73474       1126.9098      825270.19      396.06161    
      9000   9              1184.5419     -90.968845      4.7465359     -86.222309      1184.5419      919320.28      395.17362    
     10000   10             1144.6009     -91.839304      4.5864897     -87.252814      1144.6009      739188.96      396.96106    
Loop time of 1.03413 on 2 procs for 10000 steps with 32 atoms

Performance: 835.484 ns/day, 0.029 hours/ns, 9669.958 timesteps/s
97.5% CPU use with 2 MPI tasks x 1 OpenMP threads

MPI task timing breakdown:
Section |  min time  |  avg time  |  max time  |%varavg| %total
---------------------------------------------------------------
Pair    | 0.62514    | 0.67037    | 0.7156     |   5.5 | 64.82
Neigh   | 0.00017053 | 0.00019695 | 0.00022337 |   0.0 |  0.02
Comm    | 0.10584    | 0.15173    | 0.19761    |  11.8 | 14.67
Output  | 0.00017118 | 0.00041977 | 0.00066836 |   0.0 |  0.04
Modify  | 0.19967    | 0.20151    | 0.20336    |   0.4 | 19.49
Other   |            | 0.009906   |            |       |  0.96

Nlocal:             16 ave          18 max          14 min
Histogram: 1 0 0 0 0 0 0 0 0 1
Nghost:            914 ave         916 max         912 min
Histogram: 1 0 0 0 0 0 0 0 0 1
Neighs:         1639.5 ave        2065 max        1214 min
Histogram: 1 0 0 0 0 0 0 0 0 1

Total # of neighbors = 3279
Ave neighs/atom = 102.46875
Neighbor list builds = 4
Dangerous builds = 0
variable final_temp_avg equal f_3[1]
variable final_press_avg equal f_3[2]
variable final_vol_avg equal f_3[3]
variable final_etot_avg equal f_3[4]

print "${final_temp_avg} ${final_press_avg} ${final_vol_avg} ${final_etot_avg}" append ${prallfile}
print "${final_temp_avg} ${final_press_avg} ${final_vol_avg} ${final_etot_avg}" append prall.txt
1072.63169652337 800125.571011027 396.928389697478 -2.72317926780101

unfix 3
unfix 4
#unfix 1

next i
jump Ramp.txt.in LoopStart
variable i loop ${LoopSize}
variable i loop 21
print " "
 
print "*******LOOP # $i*********"
*******LOOP # 9*********
print " "
 
variable tempvar equal ${TempStep}*${i}+${TempInitial}-${TempStep}
variable tempvar equal 25*${i}+${TempInitial}-${TempStep}
variable tempvar equal 25*9+${TempInitial}-${TempStep}
variable tempvar equal 25*9+900-${TempStep}
variable tempvar equal 25*9+900-25
variable rampup_eqavgfile string rampup_eqavg_${tempvar}.txt
variable rampup_eqavgfile string rampup_eqavg_1100.txt
variable rampup_pravgfile string rampup_pravg_${tempvar}.txt
variable rampup_pravgfile string rampup_pravg_1100.txt
# variable rampup_eqfile string rampup_eq_${tempvar}.txt

# NPT Equilibration run at temperature
reset_timestep 0
variable eqrunl equal 1E4 # Keep > 10000 to avoid crashing fix lines below for time avg output
fix 1 all npt temp ${tempvar} ${tempvar} 0.1 iso 800000 800000 1 drag 1 # npt ensemble molecular dynamics.
fix 1 all npt temp 1100 ${tempvar} 0.1 iso 800000 800000 1 drag 1 
fix 1 all npt temp 1100 1100 0.1 iso 800000 800000 1 drag 1 

fix 2 all ave/time 1 10 10 c_mytemp c_mypress v_vmyvol v_avgEtotal file ${rampup_eqavgfile}
fix 2 all ave/time 1 10 10 c_mytemp c_mypress v_vmyvol v_avgEtotal file rampup_eqavg_1100.txt
# print to file average of every 10 steps. Every 10 femptoseconds


# fix 3 all ave/time 1 10000 10000 c_mytemp c_mypress v_vmyvol v_avgEtotal file ${rampup_eqfile}
thermo 1000 # Print every "thermo" timesteps
run ${eqrunl}
run 10000
Per MPI rank memory allocation (min/avg/max) = 3.605 | 3.605 | 3.605 Mbytes
   Step          Time           Temp          PotEng         KinEng         TotEng        c_mytemp      c_mypress        Volume    
         0   0              1144.6009     -91.839304      4.5864897     -87.252814      1144.6009      739188.96      396.96106    
      1000   1              954.87029     -90.396608      3.8262268     -86.570381      954.87029      865607.25      396.14674    
      2000   2              1175.6531     -92.313444      4.7109176     -87.602527      1175.6531      705904.6       398.01154    
      3000   3              1232.3582     -92.054891      4.9381387     -87.116752      1232.3582      764922.02      397.33574    
      4000   4              1178.8789     -91.527672      4.7238439     -86.803828      1178.8789      805577.14      396.4019     
      5000   5              1189.019      -92.557789      4.7644759     -87.793313      1189.019       642622.02      398.4445     
      6000   6              1166.1495     -92.387661      4.6728363     -87.714825      1166.1495      702139.81      398.25812    
      7000   7              988.40206     -91.084598      3.9605908     -87.124007      988.40206      748226.87      397.35229    
      8000   8              1130.7708     -91.641259      4.5310714     -87.110188      1130.7708      749687.24      397.25442    
      9000   9              828.44164     -90.601969      3.3196191     -87.282349      828.44164      906022.79      397.77965    
     10000   10             975.51699     -90.485341      3.9089595     -86.576381      975.51699      864536.35      396.10218    
Loop time of 0.955853 on 2 procs for 10000 steps with 32 atoms

Performance: 903.905 ns/day, 0.027 hours/ns, 10461.861 timesteps/s
98.0% CPU use with 2 MPI tasks x 1 OpenMP threads

MPI task timing breakdown:
Section |  min time  |  avg time  |  max time  |%varavg| %total
---------------------------------------------------------------
Pair    | 0.62135    | 0.66055    | 0.69975    |   4.8 | 69.11
Neigh   | 0          | 0          | 0          |   0.0 |  0.00
Comm    | 0.10804    | 0.14833    | 0.18863    |  10.5 | 15.52
Output  | 0.00015797 | 0.00037952 | 0.00060106 |   0.0 |  0.04
Modify  | 0.1358     | 0.13693    | 0.13807    |   0.3 | 14.33
Other   |            | 0.009655   |            |       |  1.01

Nlocal:             16 ave          17 max          15 min
Histogram: 1 0 0 0 0 0 0 0 0 1
Nghost:            914 ave         915 max         913 min
Histogram: 1 0 0 0 0 0 0 0 0 1
Neighs:           1632 ave        1848 max        1416 min
Histogram: 1 0 0 0 0 0 0 0 0 1

Total # of neighbors = 3264
Ave neighs/atom = 102
Neighbor list builds = 0
Dangerous builds = 0
unfix 2
# unfix 3

# NPT Production run at temperature
reset_timestep 0
variable prrunl equal 1E4
fix 3 all ave/time 1 10000 10000 c_mytemp c_mypress v_vmyvol v_avgEtotal
fix 4 all ave/time 1 10 10 c_mytemp c_mypress v_vmyvol v_avgEtotal file ${rampup_pravgfile}
fix 4 all ave/time 1 10 10 c_mytemp c_mypress v_vmyvol v_avgEtotal file rampup_pravg_1100.txt
# print to file average of every 10 steps. Every 10 femptoseconds

thermo 1000 # Print every "thermo" timesteps
run ${prrunl}
run 10000
Per MPI rank memory allocation (min/avg/max) = 3.605 | 3.605 | 3.605 Mbytes
   Step          Time           Temp          PotEng         KinEng         TotEng        c_mytemp      c_mypress        Volume    
         0   0              975.51699     -90.485341      3.9089595     -86.576381      975.51699      864536.35      396.10218    
      1000   1              1047.3474     -91.106463      4.1967886     -86.909674      1047.3474      763745.89      396.88951    
      2000   2              1259.6128     -92.212286      5.0473499     -87.164936      1259.6128      727038.83      397.51318    
      3000   3              1037.6936     -91.162409      4.1581051     -87.004304      1037.6936      803694.02      396.92877    
      4000   4              1249.5908     -90.680524      5.007191      -85.673333      1249.5908      997551.47      394.31486    
      5000   5              988.9533      -91.429519      3.9627996     -87.46672       988.9533       791132.55      397.85343    
      6000   6              996.42753     -90.781647      3.9927494     -86.788898      996.42753      864048.17      396.39438    
      7000   7              1143.4504     -91.412304      4.5818796     -86.830425      1143.4504      805671.49      396.47741    
      8000   8              1026.1724     -90.257969      4.1119388     -86.14603       1026.1724      958427.03      395.28815    
      9000   9              1296.9643     -92.030483      5.1970195     -86.833464      1296.9643      772944.16      396.77976    
     10000   10             1086.6533     -91.481391      4.3542901     -87.127101      1086.6533      740135         397.12768    
Loop time of 1.06871 on 2 procs for 10000 steps with 32 atoms

Performance: 808.453 ns/day, 0.030 hours/ns, 9357.098 timesteps/s
98.0% CPU use with 2 MPI tasks x 1 OpenMP threads

MPI task timing breakdown:
Section |  min time  |  avg time  |  max time  |%varavg| %total
---------------------------------------------------------------
Pair    | 0.61895    | 0.68416    | 0.74937    |   7.9 | 64.02
Neigh   | 0.00012624 | 0.00015042 | 0.0001746  |   0.0 |  0.01
Comm    | 0.10744    | 0.17306    | 0.23868    |  15.8 | 16.19
Output  | 7.9611e-05 | 0.00011687 | 0.00015413 |   0.0 |  0.01
Modify  | 0.19949    | 0.20096    | 0.20243    |   0.3 | 18.80
Other   |            | 0.01026    |            |       |  0.96

Nlocal:             16 ave          17 max          15 min
Histogram: 1 0 0 0 0 0 0 0 0 1
Nghost:            914 ave         915 max         913 min
Histogram: 1 0 0 0 0 0 0 0 0 1
Neighs:         1635.5 ave        2036 max        1235 min
Histogram: 1 0 0 0 0 0 0 0 0 1

Total # of neighbors = 3271
Ave neighs/atom = 102.21875
Neighbor list builds = 3
Dangerous builds = 0
variable final_temp_avg equal f_3[1]
variable final_press_avg equal f_3[2]
variable final_vol_avg equal f_3[3]
variable final_etot_avg equal f_3[4]

print "${final_temp_avg} ${final_press_avg} ${final_vol_avg} ${final_etot_avg}" append ${prallfile}
print "${final_temp_avg} ${final_press_avg} ${final_vol_avg} ${final_etot_avg}" append prall.txt
1098.52819079819 799792.602761266 396.775896199065 -2.71601417116876

unfix 3
unfix 4
#unfix 1

next i
jump Ramp.txt.in LoopStart
variable i loop ${LoopSize}
variable i loop 21
print " "
 
print "*******LOOP # $i*********"
*******LOOP # 10*********
print " "
 
variable tempvar equal ${TempStep}*${i}+${TempInitial}-${TempStep}
variable tempvar equal 25*${i}+${TempInitial}-${TempStep}
variable tempvar equal 25*10+${TempInitial}-${TempStep}
variable tempvar equal 25*10+900-${TempStep}
variable tempvar equal 25*10+900-25
variable rampup_eqavgfile string rampup_eqavg_${tempvar}.txt
[...]
Modify  | 0.11597    | 0.11665    | 0.11734    |   0.2 | 17.44
Other   |            | 0.007819   |            |       |  1.17

Nlocal:             16 ave          16 max          16 min
Histogram: 2 0 0 0 0 0 0 0 0 0
Nghost:          678.5 ave         686 max         671 min
Histogram: 1 0 0 0 0 0 0 0 0 1
Neighs:            986 ave        1008 max         964 min
Histogram: 1 0 0 0 0 0 0 0 0 1

Total # of neighbors = 1972
Ave neighs/atom = 61.625
Neighbor list builds = 194
Dangerous builds = 0
unfix 2
# unfix 3

# NPT Production run at temperature
reset_timestep 0
variable prrunl equal 1E4
fix 3 all ave/time 1 10000 10000 c_mytemp c_mypress v_vmyvol v_avgEtotal
fix 4 all ave/time 1 10 10 c_mytemp c_mypress v_vmyvol v_avgEtotal file ${rampdown_pravgfile}
fix 4 all ave/time 1 10 10 c_mytemp c_mypress v_vmyvol v_avgEtotal file rampdown_pravg_1550.txt
# print to file average of every 10 steps. Every 10 femptoseconds

thermo 1000 # Print every "thermo" timesteps
run ${prrunl}
run 10000
Per MPI rank memory allocation (min/avg/max) = 3.707 | 3.707 | 3.707 Mbytes
   Step          Time           Temp          PotEng         KinEng         TotEng        c_mytemp      c_mypress        Volume    
         0   0              1589.6706     -96.543517      6.3699128     -90.173604      1589.6706      1425.2555      653.40565    
      1000   1              1954.2855     -98.440796      7.8309479     -90.609848      1954.2855      5941.2794      625.67814    
      2000   2              1337.0118     -96.433566      5.3574923     -91.076074      1337.0118     -1934.3611      647.49556    
      3000   3              1646.4669     -96.622059      6.597499      -90.02456       1646.4669     -5020.5529      648.97126    
      4000   4              1628.324      -97.60531       6.5247993     -91.08051       1628.324      -7669.6769      637.22657    
      5000   5              1554.887      -96.916334      6.2305324     -90.685802      1554.887      -7344.3452      657.97075    
      6000   6              1567.9717     -97.531231      6.2829636     -91.248267      1567.9717     -3007.3761      628.41529    
      7000   7              1656.9042     -98.061607      6.6393218     -91.422286      1656.9042      256.24453      627.41982    
      8000   8              1722.9074     -97.42582       6.903801      -90.522019      1722.9074      7576.1676      635.49563    
      9000   9              1395.9332     -97.596842      5.5935943     -92.003248      1395.9332     -1372.5405      631.54924    
     10000   10             1533.6961     -97.454083      6.1456192     -91.308464      1533.6961     -5997.1553      633.74925    
Loop time of 0.669712 on 2 procs for 10000 steps with 32 atoms

Performance: 1290.107 ns/day, 0.019 hours/ns, 14931.799 timesteps/s
97.0% CPU use with 2 MPI tasks x 1 OpenMP threads

MPI task timing breakdown:
Section |  min time  |  avg time  |  max time  |%varavg| %total
---------------------------------------------------------------
Pair    | 0.40245    | 0.40582    | 0.4092     |   0.5 | 60.60
Neigh   | 0.0058617  | 0.0059153  | 0.0059688  |   0.1 |  0.88
Comm    | 0.080764   | 0.084146   | 0.087528   |   1.2 | 12.56
Output  | 0.0001296  | 0.0003226  | 0.00051559 |   0.0 |  0.05
Modify  | 0.1654     | 0.1658     | 0.16619    |   0.1 | 24.76
Other   |            | 0.007709   |            |       |  1.15

Nlocal:             16 ave          18 max          14 min
Histogram: 1 0 0 0 0 0 0 0 0 1
Nghost:          687.5 ave         705 max         670 min
Histogram: 1 0 0 0 0 0 0 0 0 1
Neighs:         1010.5 ave        1133 max         888 min
Histogram: 1 0 0 0 0 0 0 0 0 1

Total # of neighbors = 2021
Ave neighs/atom = 63.15625
Neighbor list builds = 190
Dangerous builds = 0
variable final_temp_avg equal f_3[1]
variable final_press_avg equal f_3[2]
variable final_vol_avg equal f_3[3]
variable final_etot_avg equal f_3[4]

print "${final_temp_avg} ${final_press_avg} ${final_vol_avg} ${final_etot_avg}" append ${prallfile}
print "${final_temp_avg} ${final_press_avg} ${final_vol_avg} ${final_etot_avg}" append prall.txt
1547.06730868312 -234.160582965881 641.538294535848 -2.84468548898522

unfix 3
unfix 4
#unfix 1

next i
jump Ramp.txt.in LoopStart2
variable i loop ${LoopSize}
variable i loop 21
print " "
 
print "*******LOOP2 # $i*********"
*******LOOP2 # 20*********
print " "
 
variable tempvar equal ${TempFinal}+${TempStep}-${TempStep}*${i}
variable tempvar equal 2000+${TempStep}-${TempStep}*${i}
variable tempvar equal 2000+25-${TempStep}*${i}
variable tempvar equal 2000+25-25*${i}
variable tempvar equal 2000+25-25*20
variable rampdown_eqavgfile string rampdown_eqavg_${tempvar}.txt
variable rampdown_eqavgfile string rampdown_eqavg_1525.txt
variable rampdown_pravgfile string rampdown_pravg_${tempvar}.txt
variable rampdown_pravgfile string rampdown_pravg_1525.txt
# variable rampup_eqfile string rampup_eq_${tempvar}.txt

# NPT Equilibration run at temperature
reset_timestep 0
variable eqrunl equal 1E4 # Keep > 10000 to avoid crashing fix lines below for time avg output
fix 1 all npt temp ${tempvar} ${tempvar} 0.1 iso 1 1 1 drag 1 # npt ensemble molecular dynamics.
fix 1 all npt temp 1525 ${tempvar} 0.1 iso 1 1 1 drag 1 
fix 1 all npt temp 1525 1525 0.1 iso 1 1 1 drag 1 
fix 2 all ave/time 1 10 10 c_mytemp c_mypress v_vmyvol v_avgEtotal file ${rampdown_eqavgfile}
fix 2 all ave/time 1 10 10 c_mytemp c_mypress v_vmyvol v_avgEtotal file rampdown_eqavg_1525.txt
# print to file average of every 10 steps. Every 10 femptoseconds
thermo 1000 # Print every "thermo" timesteps
run ${eqrunl}
run 10000
Per MPI rank memory allocation (min/avg/max) = 3.707 | 3.707 | 3.707 Mbytes
   Step          Time           Temp          PotEng         KinEng         TotEng        c_mytemp      c_mypress        Volume    
         0   0              1533.6961     -97.454083      6.1456192     -91.308464      1533.6961     -5997.1553      633.74925    
      1000   1              1634.1749     -98.036442      6.5482442     -91.488198      1634.1749      2125.3357      624.05387    
      2000   2              1415.6192     -97.355448      5.6724775     -91.68297       1415.6192      3711.7116      638.01617    
      3000   3              1731.5647     -98.065781      6.9384915     -91.127289      1731.5647      1278.2331      624.37522    
      4000   4              1479.4822     -97.703811      5.9283808     -91.775431      1479.4822     -12034.714      637.57132    
      5000   5              1457.3321     -97.058138      5.8396238     -91.218514      1457.3321      1837.1072      631.14928    
      6000   6              1712.1648     -97.378246      6.8607549     -90.517491      1712.1648      2459.8082      645.0573     
      7000   7              1501.8597     -98.007261      6.0180489     -91.989213      1501.8597     -1325.1092      622.49493    
      8000   8              1587.0036     -97.672646      6.3592258     -91.313421      1587.0036      265.12224      641.61206    
      9000   9              1413.4952     -98.048845      5.6639663     -92.384879      1413.4952      461.43668      617.98373    
     10000   10             1404.827      -97.600225      5.6292326     -91.970992      1404.827       8161.5036      627.65317    
Loop time of 0.617338 on 2 procs for 10000 steps with 32 atoms

Performance: 1399.559 ns/day, 0.017 hours/ns, 16198.594 timesteps/s
97.5% CPU use with 2 MPI tasks x 1 OpenMP threads

MPI task timing breakdown:
Section |  min time  |  avg time  |  max time  |%varavg| %total
---------------------------------------------------------------
Pair    | 0.4057     | 0.40658    | 0.40746    |   0.1 | 65.86
Neigh   | 0.0056664  | 0.0057901  | 0.0059137  |   0.2 |  0.94
Comm    | 0.081488   | 0.082398   | 0.083308   |   0.3 | 13.35
Output  | 6.3107e-05 | 9.6031e-05 | 0.00012896 |   0.0 |  0.02
Modify  | 0.11404    | 0.11477    | 0.1155     |   0.2 | 18.59
Other   |            | 0.007703   |            |       |  1.25

Nlocal:             16 ave          17 max          15 min
Histogram: 1 0 0 0 0 0 0 0 0 1
Nghost:            704 ave         712 max         696 min
Histogram: 1 0 0 0 0 0 0 0 0 1
Neighs:           1032 ave        1084 max         980 min
Histogram: 1 0 0 0 0 0 0 0 0 1

Total # of neighbors = 2064
Ave neighs/atom = 64.5
Neighbor list builds = 186
Dangerous builds = 0
unfix 2
# unfix 3

# NPT Production run at temperature
reset_timestep 0
variable prrunl equal 1E4
fix 3 all ave/time 1 10000 10000 c_mytemp c_mypress v_vmyvol v_avgEtotal
fix 4 all ave/time 1 10 10 c_mytemp c_mypress v_vmyvol v_avgEtotal file ${rampdown_pravgfile}
fix 4 all ave/time 1 10 10 c_mytemp c_mypress v_vmyvol v_avgEtotal file rampdown_pravg_1525.txt
# print to file average of every 10 steps. Every 10 femptoseconds

thermo 1000 # Print every "thermo" timesteps
run ${prrunl}
run 10000
Per MPI rank memory allocation (min/avg/max) = 3.707 | 3.707 | 3.707 Mbytes
   Step          Time           Temp          PotEng         KinEng         TotEng        c_mytemp      c_mypress        Volume    
         0   0              1404.827      -97.600225      5.6292326     -91.970992      1404.827       8161.5036      627.65317    
      1000   1              1319.6566     -97.358587      5.2879492     -92.070637      1319.6566     -227.29199      631.28347    
      2000   2              1673.8897     -97.077252      6.707384      -90.369869      1673.8897     -13848.06       667.17378    
      3000   3              1249.1554     -96.50702       5.0054464     -91.501574      1249.1554      1805.0678      639.2071     
      4000   4              1865.2584     -98.575878      7.4742108     -91.101667      1865.2584      1947.2104      631.11205    
      5000   5              1652.3366     -98.170322      6.6210192     -91.549303      1652.3366      10107.368      625.50572    
      6000   6              1613.923      -98.144565      6.4670937     -91.677471      1613.923       42.428595      624.93529    
      7000   7              1493.3473     -97.445669      5.983939      -91.46173       1493.3473     -3191.9195      644.35481    
      8000   8              1490.6814     -96.763808      5.9732564     -90.790552      1490.6814     -2905.3281      652.97248    
      9000   9              1657.872      -98.336281      6.6431998     -91.693081      1657.872       15690.209      622.32119    
     10000   10             1702.4056     -97.622233      6.8216489     -90.800584      1702.4056     -8709.3101      642.93946    
Loop time of 0.67478 on 2 procs for 10000 steps with 32 atoms

Performance: 1280.417 ns/day, 0.019 hours/ns, 14819.639 timesteps/s
98.1% CPU use with 2 MPI tasks x 1 OpenMP threads

MPI task timing breakdown:
Section |  min time  |  avg time  |  max time  |%varavg| %total
---------------------------------------------------------------
Pair    | 0.4037     | 0.41028    | 0.41686    |   1.0 | 60.80
Neigh   | 0.0058792  | 0.0059945  | 0.0061097  |   0.1 |  0.89
Comm    | 0.079567   | 0.086194   | 0.09282    |   2.3 | 12.77
Output  | 6.4963e-05 | 0.00010037 | 0.00013579 |   0.0 |  0.01
Modify  | 0.16446    | 0.1647     | 0.16494    |   0.1 | 24.41
Other   |            | 0.007512   |            |       |  1.11

Nlocal:             16 ave          18 max          14 min
Histogram: 1 0 0 0 0 0 0 0 0 1
Nghost:          675.5 ave         684 max         667 min
Histogram: 1 0 0 0 0 0 0 0 0 1
Neighs:            992 ave        1122 max         862 min
Histogram: 1 0 0 0 0 0 0 0 0 1

Total # of neighbors = 1984
Ave neighs/atom = 62
Neighbor list builds = 194
Dangerous builds = 0
variable final_temp_avg equal f_3[1]
variable final_press_avg equal f_3[2]
variable final_vol_avg equal f_3[3]
variable final_etot_avg equal f_3[4]

print "${final_temp_avg} ${final_press_avg} ${final_vol_avg} ${final_etot_avg}" append ${prallfile}
print "${final_temp_avg} ${final_press_avg} ${final_vol_avg} ${final_etot_avg}" append prall.txt
1518.19060789125 -201.803115396824 639.527897022843 -2.85063187746198

unfix 3
unfix 4
#unfix 1

next i
jump Ramp.txt.in LoopStart2
variable i loop ${LoopSize}
variable i loop 21
print " "
 
print "*******LOOP2 # $i*********"
*******LOOP2 # 21*********
print " "
 
variable tempvar equal ${TempFinal}+${TempStep}-${TempStep}*${i}
variable tempvar equal 2000+${TempStep}-${TempStep}*${i}
variable tempvar equal 2000+25-${TempStep}*${i}
variable tempvar equal 2000+25-25*${i}
variable tempvar equal 2000+25-25*21
variable rampdown_eqavgfile string rampdown_eqavg_${tempvar}.txt
variable rampdown_eqavgfile string rampdown_eqavg_1500.txt
variable rampdown_pravgfile string rampdown_pravg_${tempvar}.txt
variable rampdown_pravgfile string rampdown_pravg_1500.txt
# variable rampup_eqfile string rampup_eq_${tempvar}.txt

# NPT Equilibration run at temperature
reset_timestep 0
variable eqrunl equal 1E4 # Keep > 10000 to avoid crashing fix lines below for time avg output
fix 1 all npt temp ${tempvar} ${tempvar} 0.1 iso 1 1 1 drag 1 # npt ensemble molecular dynamics.
fix 1 all npt temp 1500 ${tempvar} 0.1 iso 1 1 1 drag 1 
fix 1 all npt temp 1500 1500 0.1 iso 1 1 1 drag 1 
fix 2 all ave/time 1 10 10 c_mytemp c_mypress v_vmyvol v_avgEtotal file ${rampdown_eqavgfile}
fix 2 all ave/time 1 10 10 c_mytemp c_mypress v_vmyvol v_avgEtotal file rampdown_eqavg_1500.txt
# print to file average of every 10 steps. Every 10 femptoseconds
thermo 1000 # Print every "thermo" timesteps
run ${eqrunl}
run 10000
Per MPI rank memory allocation (min/avg/max) = 3.707 | 3.707 | 3.707 Mbytes
   Step          Time           Temp          PotEng         KinEng         TotEng        c_mytemp      c_mypress        Volume    
         0   0              1702.4056     -97.622233      6.8216489     -90.800584      1702.4056     -8709.3101      642.93946    
      1000   1              1440.3849     -97.20223       5.771715      -91.430515      1440.3849      9767.3478      629.31445    
      2000   2              1292.8292     -96.459023      5.18045       -91.278573      1292.8292     -4472.7739      649.97002    
      3000   3              1362.0725     -96.551981      5.4579122     -91.094069      1362.0725     -8519.8363      639.5876     
      4000   4              1512.9439     -97.582057      6.062464      -91.519593      1512.9439      9074.7582      626.26951    
      5000   5              1322.1668     -96.290069      5.2980075     -90.992062      1322.1668     -3938.9049      645.01552    
      6000   6              1458.5707     -97.372686      5.8445868     -91.528099      1458.5707     -4077.3771      640.1976     
      7000   7              1623.8205     -98.226115      6.5067534     -91.719362      1623.8205     -19729.253      641.83425    
      8000   8              1219.6334     -97.385581      4.8871497     -92.498431      1219.6334      8669.8185      622.42123    
      9000   9              1567.4542     -97.617964      6.28089       -91.337074      1567.4542     -1034.3425      640.05398    
     10000   10             1462.6002     -97.792286      5.8607332     -91.931552      1462.6002      21049.701      623.98284    
Loop time of 0.609552 on 2 procs for 10000 steps with 32 atoms

Performance: 1417.435 ns/day, 0.017 hours/ns, 16405.499 timesteps/s
97.5% CPU use with 2 MPI tasks x 1 OpenMP threads

MPI task timing breakdown:
Section |  min time  |  avg time  |  max time  |%varavg| %total
---------------------------------------------------------------
Pair    | 0.39874    | 0.40056    | 0.40238    |   0.3 | 65.71
Neigh   | 0.005639   | 0.0056648  | 0.0056906  |   0.0 |  0.93
Comm    | 0.079703   | 0.081434   | 0.083165   |   0.6 | 13.36
Output  | 0.00012831 | 0.00036589 | 0.00060346 |   0.0 |  0.06
Modify  | 0.11336    | 0.11386    | 0.11436    |   0.1 | 18.68
Other   |            | 0.007665   |            |       |  1.26

Nlocal:             16 ave          18 max          14 min
Histogram: 1 0 0 0 0 0 0 0 0 1
Nghost:          696.5 ave         711 max         682 min
Histogram: 1 0 0 0 0 0 0 0 0 1
Neighs:           1033 ave        1156 max         910 min
Histogram: 1 0 0 0 0 0 0 0 0 1

Total # of neighbors = 2066
Ave neighs/atom = 64.5625
Neighbor list builds = 184
Dangerous builds = 0
unfix 2
# unfix 3

# NPT Production run at temperature
reset_timestep 0
variable prrunl equal 1E4
fix 3 all ave/time 1 10000 10000 c_mytemp c_mypress v_vmyvol v_avgEtotal
fix 4 all ave/time 1 10 10 c_mytemp c_mypress v_vmyvol v_avgEtotal file ${rampdown_pravgfile}
fix 4 all ave/time 1 10 10 c_mytemp c_mypress v_vmyvol v_avgEtotal file rampdown_pravg_1500.txt
# print to file average of every 10 steps. Every 10 femptoseconds

thermo 1000 # Print every "thermo" timesteps
run ${prrunl}
run 10000
Per MPI rank memory allocation (min/avg/max) = 3.707 | 3.707 | 3.707 Mbytes
   Step          Time           Temp          PotEng         KinEng         TotEng        c_mytemp      c_mypress        Volume    
         0   0              1462.6002     -97.792286      5.8607332     -91.931552      1462.6002      21049.701      623.98284    
      1000   1              1418.2371     -96.606256      5.6829675     -90.923289      1418.2371     -8548.7866      644.13897    
      2000   2              1437.1662     -97.519137      5.7588176     -91.76032       1437.1662      9016.0775      628.49039    
      3000   3              1185.1659     -97.180799      4.7490363     -92.431763      1185.1659      5871.5436      627.87007    
      4000   4              1492.3797     -96.131444      5.9800618     -90.151382      1492.3797     -1537.8568      660.66167    
      5000   5              1729.0361     -97.036692      6.9283591     -90.108333      1729.0361     -3285.5882      659.93696    
      6000   6              1409.8379     -96.943713      5.6493115     -91.294401      1409.8379     -9546.3745      638.77905    
      7000   7              1703.7428     -98.230551      6.8270073     -91.403544      1703.7428     -9973.1537      650.20387    
      8000   8              1623.5261     -97.640498      6.5055737     -91.134925      1623.5261     -10547.52       634.38469    
      9000   9              1521.0557     -97.300257      6.0949684     -91.205289      1521.0557      9216.8556      632.05243    
     10000   10             1472.0455     -96.279962      5.8985812     -90.381381      1472.0455      5527.2752      644.07529    
Loop time of 0.667309 on 2 procs for 10000 steps with 32 atoms

Performance: 1294.752 ns/day, 0.019 hours/ns, 14985.554 timesteps/s
97.2% CPU use with 2 MPI tasks x 1 OpenMP threads

MPI task timing breakdown:
Section |  min time  |  avg time  |  max time  |%varavg| %total
---------------------------------------------------------------
Pair    | 0.3993     | 0.40442    | 0.40954    |   0.8 | 60.60
Neigh   | 0.0057016  | 0.0058088  | 0.005916   |   0.1 |  0.87
Comm    | 0.079348   | 0.084516   | 0.089683   |   1.8 | 12.67
Output  | 0.00013857 | 0.00030295 | 0.00046732 |   0.0 |  0.05
Modify  | 0.16423    | 0.16449    | 0.16474    |   0.1 | 24.65
Other   |            | 0.007773   |            |       |  1.16

Nlocal:             16 ave          19 max          13 min
Histogram: 1 0 0 0 0 0 0 0 0 1
Nghost:            677 ave         698 max         656 min
Histogram: 1 0 0 0 0 0 0 0 0 1
Neighs:            989 ave        1183 max         795 min
Histogram: 1 0 0 0 0 0 0 0 0 1

Total # of neighbors = 1978
Ave neighs/atom = 61.8125
Neighbor list builds = 188
Dangerous builds = 0
variable final_temp_avg equal f_3[1]
variable final_press_avg equal f_3[2]
variable final_vol_avg equal f_3[3]
variable final_etot_avg equal f_3[4]

print "${final_temp_avg} ${final_press_avg} ${final_vol_avg} ${final_etot_avg}" append ${prallfile}
print "${final_temp_avg} ${final_press_avg} ${final_vol_avg} ${final_etot_avg}" append prall.txt
1491.76580678245 -371.425616180018 640.945609575166 -2.84974817815921

unfix 3
unfix 4
#unfix 1

next i
jump Ramp.txt.in LoopStart2
variable i delete
Total wall time: 0:01:13
