
     Program PWSCF v.7.3.1 starts on 24Sep2024 at 10:19:22 

     This program is part of the open-source Quantum ESPRESSO suite
     for quantum simulation of materials; please cite
         "P. Giannozzi et al., J. Phys.:Condens. Matter 21 395502 (2009);
         "P. Giannozzi et al., J. Phys.:Condens. Matter 29 465901 (2017);
         "P. Giannozzi et al., J. Chem. Phys. 152 154105 (2020);
          URL http://www.quantum-espresso.org", 
     in publications or presentations arising from this work. More details at
     http://www.quantum-espresso.org/quote

     Parallel version (MPI & OpenMP), running on       2 processor cores
     Number of MPI processes:                 2
     Threads/MPI process:                     1

     MPI processes distributed on     1 nodes
     344404 MiB available memory on the printing compute node when the environment starts

     Reading input from relax.in

     Current dimensions of program PWSCF are:
     Max number of different atomic species (ntypx) = 10
     Max number of k-points (npk) =  40000
     Max angular momentum in pseudopotentials (lmaxx) =  4

     gamma-point specific algorithms are used

     R & G space division:  proc/nbgrp/npool/nimage =       2
     Subspace diagonalization in iterative solution of the eigenvalue problem:
     a serial algorithm will be used


     Parallelization info
     --------------------
     sticks:   dense  smooth     PW     G-vecs:    dense   smooth      PW
     Min        1819    1458    361                82426    59130    7383
     Max        1822    1459    364                82427    59135    7388
     Sum        3641    2917    725               164853   118265   14771

     Using Slab Decomposition



     bravais-lattice index     =            1
     lattice parameter (alat)  =      15.1178  a.u.
     unit-cell volume          =    3455.1465 (a.u.)^3
     number of atoms/cell      =            3
     number of atomic types    =            2
     number of electrons       =         8.00
     number of Kohn-Sham states=            4
     kinetic-energy cutoff     =      40.0000  Ry
     charge density cutoff     =     200.0000  Ry
     scf convergence threshold =      1.0E-08
     mixing beta               =       0.7000
     number of iterations used =            8  plain     mixing
     energy convergence thresh.=      1.0E-04
     force convergence thresh. =      1.0E-03
     Exchange-correlation=  SLA  PW   PBX  PBC
                           (   1   4   3   4   0   0   0)
     nstep                     =           50


     celldm(1)=  15.117808  celldm(2)=   0.000000  celldm(3)=   0.000000
     celldm(4)=   0.000000  celldm(5)=   0.000000  celldm(6)=   0.000000

     crystal axes: (cart. coord. in units of alat)
               a(1) = (   1.000000   0.000000   0.000000 )  
               a(2) = (   0.000000   1.000000   0.000000 )  
               a(3) = (   0.000000   0.000000   1.000000 )  

     reciprocal axes: (cart. coord. in units 2 pi/alat)
               b(1) = (  1.000000  0.000000  0.000000 )  
               b(2) = (  0.000000  1.000000  0.000000 )  
               b(3) = (  0.000000  0.000000  1.000000 )  


     PseudoPot. # 1 for O  read from file:
     ./o_pbe_v1.2.uspp.F.UPF
     MD5 check sum: 734c27235a0248c51dbae37a1fbe46ec
     Pseudo is Ultrasoft + core correction, Zval =  6.0
     Generated by new atomic code, or converted to UPF format
     Using radial grid of  737 points,  5 beta functions with: 
                l(1) =   0
                l(2) =   0
                l(3) =   1
                l(4) =   1
                l(5) =   2
     Q(r) pseudized with  8 coefficients,  rinner =    0.900   0.900   0.900
                                                       0.900   0.900

     PseudoPot. # 2 for H  read from file:
     ./h_pbe_v1.4.uspp.F.UPF
     MD5 check sum: 761ae9a214b05c3daf00ab9f6b793d6f
     Pseudo is Ultrasoft, Zval =  1.0
     Generated by new atomic code, or converted to UPF format
     Using radial grid of  615 points,  2 beta functions with: 
                l(1) =   0
                l(2) =   0
     Q(r) pseudized with  8 coefficients,  rinner =    0.700

     atomic species   valence    mass     pseudopotential
     O                 6.00    16.00000     O ( 1.00)
     H                 1.00     1.00000     H ( 1.00)

      4 Sym. Ops. (no inversion) found


                                    s                        frac. trans.

      isym =  1     identity                                     

 cryst.   s( 1) = (     1          0          0      )
                  (     0          1          0      )
                  (     0          0          1      )

 cart.    s( 1) = (  1.0000000  0.0000000  0.0000000 )
                  (  0.0000000  1.0000000  0.0000000 )
                  (  0.0000000  0.0000000  1.0000000 )


      isym =  2     180 deg rotation - cart. axis [0,0,1]        

 cryst.   s( 2) = (    -1          0          0      )
                  (     0         -1          0      )
                  (     0          0          1      )

 cart.    s( 2) = ( -1.0000000  0.0000000  0.0000000 )
                  (  0.0000000 -1.0000000  0.0000000 )
                  (  0.0000000  0.0000000  1.0000000 )


      isym =  3     inv. 180 deg rotation - cart. axis [0,1,0]   

 cryst.   s( 3) = (     1          0          0      )
                  (     0         -1          0      )
                  (     0          0          1      )

 cart.    s( 3) = (  1.0000000  0.0000000  0.0000000 )
                  (  0.0000000 -1.0000000  0.0000000 )
                  (  0.0000000  0.0000000  1.0000000 )


      isym =  4     inv. 180 deg rotation - cart. axis [1,0,0]   

 cryst.   s( 4) = (    -1          0          0      )
                  (     0          1          0      )
                  (     0          0          1      )

 cart.    s( 4) = ( -1.0000000  0.0000000  0.0000000 )
                  (  0.0000000  1.0000000  0.0000000 )
                  (  0.0000000  0.0000000  1.0000000 )


     point group C_2v (mm2) 
     there are  4 classes
     the character table:

       E     C2    s_v   s_v' 
A_1    1.00  1.00  1.00  1.00
A_2    1.00  1.00 -1.00 -1.00
B_1    1.00 -1.00  1.00 -1.00
B_2    1.00 -1.00 -1.00  1.00

     the symmetry operations in each class and the name of the first element:

     E        1
          identity                                               
     C2       2
          180 deg rotation - cart. axis [0,0,1]                  
     s_v      4
          inv. 180 deg rotation - cart. axis [1,0,0]             
     s_v'     3
          inv. 180 deg rotation - cart. axis [0,1,0]             

   Cartesian axes

     site n.     atom                  positions (alat units)
         1        O      tau(   1) = (   0.5000000   0.5000000   0.5000000  )
         2        H      tau(   2) = (   0.3750000   0.5000000   0.6250000  )
         3        H      tau(   3) = (   0.6250000   0.5000000   0.6250000  )

   Crystallographic axes

     site n.     atom                  positions (cryst. coord.)
         1        O      tau(   1) = (  0.5000000  0.5000000  0.5000000  )
         2        H      tau(   2) = (  0.3750000  0.5000000  0.6250000  )
         3        H      tau(   3) = (  0.6250000  0.5000000  0.6250000  )

     number of k points=     1
                       cart. coord. in units 2pi/alat
        k(    1) = (   0.0000000   0.0000000   0.0000000), wk =   2.0000000

                       cryst. coord.
        k(    1) = (   0.0000000   0.0000000   0.0000000), wk =   2.0000000

     Dense  grid:    82427 G-vectors     FFT dimensions: (  72,  72,  72)

     Smooth grid:    59133 G-vectors     FFT dimensions: (  64,  64,  64)

     Dynamical RAM for                 wfc:       0.23 MB

     Dynamical RAM for     wfc (w. buffer):       0.23 MB

     Dynamical RAM for           str. fact:       1.26 MB

     Dynamical RAM for           local pot:       0.00 MB

     Dynamical RAM for          nlocal pot:       0.96 MB

     Dynamical RAM for                qrad:       1.62 MB

     Dynamical RAM for          rho,v,vnew:       6.16 MB

     Dynamical RAM for               rhoin:       2.05 MB

     Dynamical RAM for            rho*nmix:      10.06 MB

     Dynamical RAM for           G-vectors:       2.58 MB

     Dynamical RAM for          h,s,v(r/c):       0.00 MB

     Dynamical RAM for          <psi|beta>:       0.00 MB

     Dynamical RAM for                 psi:       0.45 MB

     Dynamical RAM for                hpsi:       0.45 MB

     Dynamical RAM for                spsi:       0.45 MB

     Dynamical RAM for      wfcinit/wfcrot:       0.68 MB

     Dynamical RAM for           addusdens:      67.92 MB

     Dynamical RAM for          addusforce:      69.49 MB

     Estimated static dynamical RAM per process >      23.86 MB

     Estimated max dynamical RAM per process >     103.42 MB

     Estimated total dynamical RAM >     206.84 MB

     Initial potential from superposition of free atoms

     starting charge       8.0000, renormalised to       8.0000

     negative rho (up, down):  1.189E-04 0.000E+00
     Starting wfcs are    6 randomized atomic wfcs

     total cpu time spent up to now is        1.2 secs

     per-process dynamical memory:    51.8 Mb

     Self-consistent Calculation

     iteration #  1     ecut=    40.00 Ry     beta= 0.70
     Davidson diagonalization with overlap

---- Real-time Memory Report at c_bands before calling an iterative solver
           266 MiB given to the printing process from OS
            50 MiB allocation reported by mallinfo(arena+hblkhd)
        344393 MiB available memory on the node where the printing process lives
------------------
     ethr =  1.00E-02,  avg # of iterations =  2.0

     negative rho (up, down):  4.158E-04 0.000E+00

     total cpu time spent up to now is        1.4 secs

     total energy              =     -34.12748482 Ry
     estimated scf accuracy    <       0.47471405 Ry

     iteration #  2     ecut=    40.00 Ry     beta= 0.70
     Davidson diagonalization with overlap

---- Real-time Memory Report at c_bands before calling an iterative solver
           272 MiB given to the printing process from OS
            58 MiB allocation reported by mallinfo(arena+hblkhd)
        344374 MiB available memory on the node where the printing process lives
------------------
     ethr =  5.93E-03,  avg # of iterations =  4.0

     negative rho (up, down):  6.001E-04 0.000E+00

     total cpu time spent up to now is        1.7 secs

     total energy              =     -34.14802414 Ry
     estimated scf accuracy    <       1.95390196 Ry

     iteration #  3     ecut=    40.00 Ry     beta= 0.70
     Davidson diagonalization with overlap

---- Real-time Memory Report at c_bands before calling an iterative solver
           273 MiB given to the printing process from OS
            59 MiB allocation reported by mallinfo(arena+hblkhd)
        344369 MiB available memory on the node where the printing process lives
------------------
     ethr =  5.93E-03,  avg # of iterations =  2.0

     negative rho (up, down):  6.641E-04 0.000E+00

     total cpu time spent up to now is        2.0 secs

     total energy              =     -34.37281068 Ry
     estimated scf accuracy    <       0.02145000 Ry

     iteration #  4     ecut=    40.00 Ry     beta= 0.70
     Davidson diagonalization with overlap

---- Real-time Memory Report at c_bands before calling an iterative solver
           274 MiB given to the printing process from OS
            60 MiB allocation reported by mallinfo(arena+hblkhd)
        344357 MiB available memory on the node where the printing process lives
------------------
     ethr =  2.68E-04,  avg # of iterations =  4.0

     negative rho (up, down):  7.068E-04 0.000E+00

     total cpu time spent up to now is        2.2 secs

     total energy              =     -34.38439089 Ry
     estimated scf accuracy    <       0.03081854 Ry

     iteration #  5     ecut=    40.00 Ry     beta= 0.70
     Davidson diagonalization with overlap

---- Real-time Memory Report at c_bands before calling an iterative solver
           275 MiB given to the printing process from OS
            60 MiB allocation reported by mallinfo(arena+hblkhd)
        344393 MiB available memory on the node where the printing process lives
------------------
     ethr =  2.68E-04,  avg # of iterations =  1.0

     negative rho (up, down):  7.303E-04 0.000E+00

     total cpu time spent up to now is        2.5 secs

     total energy              =     -34.38478646 Ry
     estimated scf accuracy    <       0.00695579 Ry

     iteration #  6     ecut=    40.00 Ry     beta= 0.70
     Davidson diagonalization with overlap

---- Real-time Memory Report at c_bands before calling an iterative solver
           275 MiB given to the printing process from OS
            61 MiB allocation reported by mallinfo(arena+hblkhd)
        344391 MiB available memory on the node where the printing process lives
------------------
     ethr =  8.69E-05,  avg # of iterations =  2.0

     negative rho (up, down):  7.923E-04 0.000E+00

     total cpu time spent up to now is        2.7 secs

     total energy              =     -34.38454618 Ry
     estimated scf accuracy    <       0.00206771 Ry

     iteration #  7     ecut=    40.00 Ry     beta= 0.70
     Davidson diagonalization with overlap

---- Real-time Memory Report at c_bands before calling an iterative solver
           276 MiB given to the printing process from OS
            62 MiB allocation reported by mallinfo(arena+hblkhd)
        344416 MiB available memory on the node where the printing process lives
------------------
     ethr =  2.58E-05,  avg # of iterations =  3.0

     negative rho (up, down):  8.172E-04 0.000E+00

     total cpu time spent up to now is        3.0 secs

     total energy              =     -34.38540846 Ry
     estimated scf accuracy    <       0.00087136 Ry

     iteration #  8     ecut=    40.00 Ry     beta= 0.70
     Davidson diagonalization with overlap

---- Real-time Memory Report at c_bands before calling an iterative solver
           277 MiB given to the printing process from OS
            63 MiB allocation reported by mallinfo(arena+hblkhd)
        344398 MiB available memory on the node where the printing process lives
------------------
     ethr =  1.09E-05,  avg # of iterations =  1.0

     negative rho (up, down):  8.108E-04 0.000E+00

     total cpu time spent up to now is        3.3 secs

     total energy              =     -34.38525950 Ry
     estimated scf accuracy    <       0.00065442 Ry

     iteration #  9     ecut=    40.00 Ry     beta= 0.70
     Davidson diagonalization with overlap

---- Real-time Memory Report at c_bands before calling an iterative solver
           278 MiB given to the printing process from OS
            64 MiB allocation reported by mallinfo(arena+hblkhd)
        344389 MiB available memory on the node where the printing process lives
------------------
     ethr =  8.18E-06,  avg # of iterations =  2.0

     negative rho (up, down):  8.043E-04 0.000E+00

     total cpu time spent up to now is        3.5 secs

     total energy              =     -34.38532602 Ry
     estimated scf accuracy    <       0.00002764 Ry

     iteration # 10     ecut=    40.00 Ry     beta= 0.70
     Davidson diagonalization with overlap

---- Real-time Memory Report at c_bands before calling an iterative solver
           279 MiB given to the printing process from OS
            65 MiB allocation reported by mallinfo(arena+hblkhd)
        344814 MiB available memory on the node where the printing process lives
------------------
     ethr =  3.46E-07,  avg # of iterations =  2.0

     negative rho (up, down):  8.015E-04 0.000E+00

     total cpu time spent up to now is        3.8 secs

     total energy              =     -34.38532631 Ry
     estimated scf accuracy    <       0.00001274 Ry

     iteration # 11     ecut=    40.00 Ry     beta= 0.70
     Davidson diagonalization with overlap

---- Real-time Memory Report at c_bands before calling an iterative solver
           280 MiB given to the printing process from OS
            65 MiB allocation reported by mallinfo(arena+hblkhd)
        345898 MiB available memory on the node where the printing process lives
------------------
     ethr =  1.59E-07,  avg # of iterations =  2.0

     negative rho (up, down):  8.001E-04 0.000E+00

     total cpu time spent up to now is        4.1 secs

     total energy              =     -34.38532678 Ry
     estimated scf accuracy    <       0.00000413 Ry

     iteration # 12     ecut=    40.00 Ry     beta= 0.70
     Davidson diagonalization with overlap

---- Real-time Memory Report at c_bands before calling an iterative solver
           280 MiB given to the printing process from OS
            65 MiB allocation reported by mallinfo(arena+hblkhd)
        345888 MiB available memory on the node where the printing process lives
------------------
     ethr =  5.16E-08,  avg # of iterations =  3.0

     negative rho (up, down):  7.993E-04 0.000E+00

     total cpu time spent up to now is        4.3 secs

     total energy              =     -34.38532768 Ry
     estimated scf accuracy    <       0.00000010 Ry

     iteration # 13     ecut=    40.00 Ry     beta= 0.70
     Davidson diagonalization with overlap

---- Real-time Memory Report at c_bands before calling an iterative solver
           280 MiB given to the printing process from OS
            65 MiB allocation reported by mallinfo(arena+hblkhd)
        345841 MiB available memory on the node where the printing process lives
------------------
     ethr =  1.22E-09,  avg # of iterations =  5.0

     negative rho (up, down):  7.993E-04 0.000E+00

     total cpu time spent up to now is        4.6 secs

     total energy              =     -34.38532770 Ry
     estimated scf accuracy    <       0.00000070 Ry

     iteration # 14     ecut=    40.00 Ry     beta= 0.70
     Davidson diagonalization with overlap

---- Real-time Memory Report at c_bands before calling an iterative solver
           280 MiB given to the printing process from OS
            65 MiB allocation reported by mallinfo(arena+hblkhd)
        345868 MiB available memory on the node where the printing process lives
------------------
     ethr =  1.22E-09,  avg # of iterations =  3.0

     negative rho (up, down):  7.999E-04 0.000E+00

     total cpu time spent up to now is        4.9 secs

     total energy              =     -34.38532779 Ry
     estimated scf accuracy    <       0.00000002 Ry

     iteration # 15     ecut=    40.00 Ry     beta= 0.70
     Davidson diagonalization with overlap

---- Real-time Memory Report at c_bands before calling an iterative solver
           280 MiB given to the printing process from OS
            65 MiB allocation reported by mallinfo(arena+hblkhd)
        345742 MiB available memory on the node where the printing process lives
------------------
     ethr =  2.82E-10,  avg # of iterations =  4.0

     negative rho (up, down):  7.999E-04 0.000E+00

     total cpu time spent up to now is        5.2 secs

     total energy              =     -34.38532778 Ry
     estimated scf accuracy    <       0.00000047 Ry

     iteration # 16     ecut=    40.00 Ry     beta= 0.70
     Davidson diagonalization with overlap

---- Real-time Memory Report at c_bands before calling an iterative solver
           280 MiB given to the printing process from OS
            65 MiB allocation reported by mallinfo(arena+hblkhd)
        345410 MiB available memory on the node where the printing process lives
------------------
     ethr =  2.82E-10,  avg # of iterations =  3.0

     negative rho (up, down):  7.998E-04 0.000E+00

     total cpu time spent up to now is        5.4 secs

     total energy              =     -34.38532779 Ry
     estimated scf accuracy    <       0.00000011 Ry

     iteration # 17     ecut=    40.00 Ry     beta= 0.70
     Davidson diagonalization with overlap

---- Real-time Memory Report at c_bands before calling an iterative solver
           280 MiB given to the printing process from OS
            65 MiB allocation reported by mallinfo(arena+hblkhd)
        345411 MiB available memory on the node where the printing process lives
------------------
     ethr =  2.82E-10,  avg # of iterations =  2.0

     negative rho (up, down):  7.996E-04 0.000E+00

     total cpu time spent up to now is        5.7 secs

     total energy              =     -34.38532777 Ry
     estimated scf accuracy    <       0.00000006 Ry

     iteration # 18     ecut=    40.00 Ry     beta= 0.70
     Davidson diagonalization with overlap

---- Real-time Memory Report at c_bands before calling an iterative solver
           280 MiB given to the printing process from OS
            65 MiB allocation reported by mallinfo(arena+hblkhd)
        345362 MiB available memory on the node where the printing process lives
------------------
     ethr =  2.82E-10,  avg # of iterations =  2.0

     negative rho (up, down):  7.996E-04 0.000E+00

     total cpu time spent up to now is        6.0 secs

     total energy              =     -34.38532779 Ry
     estimated scf accuracy    <       0.00000001 Ry

     iteration # 19     ecut=    40.00 Ry     beta= 0.70
     Davidson diagonalization with overlap

---- Real-time Memory Report at c_bands before calling an iterative solver
           280 MiB given to the printing process from OS
            65 MiB allocation reported by mallinfo(arena+hblkhd)
        345369 MiB available memory on the node where the printing process lives
------------------
     ethr =  1.41E-10,  avg # of iterations =  1.0

     negative rho (up, down):  7.995E-04 0.000E+00

     total cpu time spent up to now is        6.2 secs

     total energy              =     -34.38532779 Ry
     estimated scf accuracy    <       0.00000001 Ry

     iteration # 20     ecut=    40.00 Ry     beta= 0.70
     Davidson diagonalization with overlap

---- Real-time Memory Report at c_bands before calling an iterative solver
           280 MiB given to the printing process from OS
            65 MiB allocation reported by mallinfo(arena+hblkhd)
        345277 MiB available memory on the node where the printing process lives
------------------
     ethr =  1.27E-10,  avg # of iterations =  1.0

     negative rho (up, down):  7.997E-04 0.000E+00

     total cpu time spent up to now is        6.5 secs

     total energy              =     -34.38532778 Ry
     estimated scf accuracy    <       0.00000001 Ry

     iteration # 21     ecut=    40.00 Ry     beta= 0.70
     Davidson diagonalization with overlap

---- Real-time Memory Report at c_bands before calling an iterative solver
           280 MiB given to the printing process from OS
            65 MiB allocation reported by mallinfo(arena+hblkhd)
        345033 MiB available memory on the node where the printing process lives
------------------
     ethr =  1.27E-10,  avg # of iterations =  3.0

     negative rho (up, down):  7.996E-04 0.000E+00

     total cpu time spent up to now is        6.8 secs

     total energy              =     -34.38532778 Ry
     estimated scf accuracy    <       0.00000002 Ry

     iteration # 22     ecut=    40.00 Ry     beta= 0.70
     Davidson diagonalization with overlap

---- Real-time Memory Report at c_bands before calling an iterative solver
           280 MiB given to the printing process from OS
            65 MiB allocation reported by mallinfo(arena+hblkhd)
        344789 MiB available memory on the node where the printing process lives
------------------
     ethr =  1.27E-10,  avg # of iterations =  2.0

     negative rho (up, down):  7.996E-04 0.000E+00

     total cpu time spent up to now is        7.0 secs

     End of self-consistent calculation

          k = 0.0000 0.0000 0.0000 (  7386 PWs)   bands (ev):

   -22.2717  -9.5299  -9.1199  -6.4929

     occupation numbers 
     1.0000   1.0000   1.0000   1.0000

     highest occupied level (ev):    -6.4929

!    total energy              =     -34.38532778 Ry
     estimated scf accuracy    <          3.1E-10 Ry

     The total energy is the sum of the following terms:
     one-electron contribution =     -51.03604214 Ry
     hartree contribution      =      27.16883863 Ry
     xc contribution           =      -8.13787576 Ry
     ewald contribution        =      -2.38024851 Ry

     convergence has been achieved in  22 iterations

     negative rho (up, down):  7.996E-04 0.000E+00

     Forces acting on atoms (cartesian axes, Ry/au):

     atom    1 type  1   force =     0.00000000    0.00000000    0.30729170
     atom    2 type  2   force =     0.15029885    0.00000000   -0.15364585
     atom    3 type  2   force =    -0.15029885    0.00000000   -0.15364585
     The non-local contrib.  to forces
     atom    1 type  1   force =     0.00000000    0.00000000    1.64796528
     atom    2 type  2   force =     0.04801938    0.00000000   -0.04460507
     atom    3 type  2   force =    -0.04801938    0.00000000   -0.04460507
     The ionic contribution  to forces
     atom    1 type  1   force =    -0.00000000   -0.00000000   -2.32247808
     atom    2 type  2   force =    -1.29034567   -0.00000000    1.16123904
     atom    3 type  2   force =     1.29034567    0.00000000    1.16123904
     The local contribution  to forces
     atom    1 type  1   force =    -0.00000052    0.00000002    0.99523629
     atom    2 type  2   force =     1.39262393    0.00000000   -1.27028208
     atom    3 type  2   force =    -1.39262429    0.00000000   -1.27028213
     The core correction contribution to forces
     atom    1 type  1   force =     0.00000002   -0.00000000   -0.01342359
     atom    2 type  2   force =     0.00000000    0.00000000    0.00000000
     atom    3 type  2   force =     0.00000000    0.00000000    0.00000000
     The Hubbard contrib.    to forces
     atom    1 type  1   force =     0.00000000    0.00000000    0.00000000
     atom    2 type  2   force =     0.00000000    0.00000000    0.00000000
     atom    3 type  2   force =     0.00000000    0.00000000    0.00000000
     The SCF correction term to forces
     atom    1 type  1   force =     0.00000145   -0.00000003   -0.00001169
     atom    2 type  2   force =     0.00000119   -0.00000000   -0.00000120
     atom    3 type  2   force =    -0.00000085   -0.00000000   -0.00000121

     Total force =     0.432229     Total SCF correction =     0.000012

     BFGS Geometry Optimization
     Energy error            =      0.0E+00 Ry
     Gradient error          =      3.1E-01 Ry/Bohr

     number of scf cycles    =   1
     number of bfgs steps    =   0

     energy             new  =     -34.3853277845 Ry

     new trust radius        =       0.3072916954 bohr
     new conv_thr            =       0.0000000100 Ry


ATOMIC_POSITIONS (angstrom)
O                4.0000000000        4.0000000000        4.1626117623
H                3.0795347246        4.0000000000        4.9186941189
H                4.9204652754        4.0000000000        4.9186941189



     Writing config-only to output data dir ./h2o.save/ :
     XML data file
     NEW-OLD atomic charge density approx. for the potential

     negative rho (up, down):  1.203E-03 0.000E+00

     total cpu time spent up to now is        7.4 secs

     per-process dynamical memory:    58.7 Mb

     Self-consistent Calculation

     iteration #  1     ecut=    40.00 Ry     beta= 0.70
     Davidson diagonalization with overlap

---- Real-time Memory Report at c_bands before calling an iterative solver
           280 MiB given to the printing process from OS
            57 MiB allocation reported by mallinfo(arena+hblkhd)
        344711 MiB available memory on the node where the printing process lives
------------------
     ethr =  1.00E-06,  avg # of iterations =  9.0

     negative rho (up, down):  7.123E-04 0.000E+00

     total cpu time spent up to now is        7.7 secs

     total energy              =     -34.54010179 Ry
     estimated scf accuracy    <       0.05181470 Ry

     iteration #  2     ecut=    40.00 Ry     beta= 0.70
     Davidson diagonalization with overlap

---- Real-time Memory Report at c_bands before calling an iterative solver
           280 MiB given to the printing process from OS
            58 MiB allocation reported by mallinfo(arena+hblkhd)
        344600 MiB available memory on the node where the printing process lives
------------------
     ethr =  6.48E-04,  avg # of iterations =  3.0

     negative rho (up, down):  9.328E-04 0.000E+00

     total cpu time spent up to now is        7.9 secs

     total energy              =     -34.54985586 Ry
     estimated scf accuracy    <       0.09594489 Ry

     iteration #  3     ecut=    40.00 Ry     beta= 0.70
     Davidson diagonalization with overlap

---- Real-time Memory Report at c_bands before calling an iterative solver
           280 MiB given to the printing process from OS
            59 MiB allocation reported by mallinfo(arena+hblkhd)
        344664 MiB available memory on the node where the printing process lives
------------------
     ethr =  6.48E-04,  avg # of iterations =  2.0

     negative rho (up, down):  8.035E-04 0.000E+00

     total cpu time spent up to now is        8.2 secs

     total energy              =     -34.56206543 Ry
     estimated scf accuracy    <       0.00290959 Ry

     iteration #  4     ecut=    40.00 Ry     beta= 0.70
     Davidson diagonalization with overlap

---- Real-time Memory Report at c_bands before calling an iterative solver
           280 MiB given to the printing process from OS
            60 MiB allocation reported by mallinfo(arena+hblkhd)
        344590 MiB available memory on the node where the printing process lives
------------------
     ethr =  3.64E-05,  avg # of iterations =  4.0

     negative rho (up, down):  8.069E-04 0.000E+00

     total cpu time spent up to now is        8.5 secs

     total energy              =     -34.56480237 Ry
     estimated scf accuracy    <       0.00878449 Ry

     iteration #  5     ecut=    40.00 Ry     beta= 0.70
     Davidson diagonalization with overlap

---- Real-time Memory Report at c_bands before calling an iterative solver
           280 MiB given to the printing process from OS
            61 MiB allocation reported by mallinfo(arena+hblkhd)
        345393 MiB available memory on the node where the printing process lives
------------------
     ethr =  3.64E-05,  avg # of iterations =  2.0

     negative rho (up, down):  8.338E-04 0.000E+00

     total cpu time spent up to now is        8.7 secs

     total energy              =     -34.56427580 Ry
     estimated scf accuracy    <       0.00245751 Ry

     iteration #  6     ecut=    40.00 Ry     beta= 0.70
     Davidson diagonalization with overlap

---- Real-time Memory Report at c_bands before calling an iterative solver
           280 MiB given to the printing process from OS
            62 MiB allocation reported by mallinfo(arena+hblkhd)
        345398 MiB available memory on the node where the printing process lives
------------------
     ethr =  3.07E-05,  avg # of iterations =  2.0

     negative rho (up, down):  8.363E-04 0.000E+00

     total cpu time spent up to now is        9.0 secs

     total energy              =     -34.56470485 Ry
     estimated scf accuracy    <       0.00001645 Ry

     iteration #  7     ecut=    40.00 Ry     beta= 0.70
     Davidson diagonalization with overlap

---- Real-time Memory Report at c_bands before calling an iterative solver
           281 MiB given to the printing process from OS
            63 MiB allocation reported by mallinfo(arena+hblkhd)
        345279 MiB available memory on the node where the printing process lives
------------------
     ethr =  2.06E-07,  avg # of iterations =  4.0

     negative rho (up, down):  8.372E-04 0.000E+00

     total cpu time spent up to now is        9.2 secs

     total energy              =     -34.56471860 Ry
     estimated scf accuracy    <       0.00000260 Ry

     iteration #  8     ecut=    40.00 Ry     beta= 0.70
     Davidson diagonalization with overlap

---- Real-time Memory Report at c_bands before calling an iterative solver
           281 MiB given to the printing process from OS
            64 MiB allocation reported by mallinfo(arena+hblkhd)
        345332 MiB available memory on the node where the printing process lives
------------------
     ethr =  3.25E-08,  avg # of iterations =  2.0

     negative rho (up, down):  8.336E-04 0.000E+00

     total cpu time spent up to now is        9.5 secs

     total energy              =     -34.56471731 Ry
     estimated scf accuracy    <       0.00000253 Ry

     iteration #  9     ecut=    40.00 Ry     beta= 0.70
     Davidson diagonalization with overlap

---- Real-time Memory Report at c_bands before calling an iterative solver
           282 MiB given to the printing process from OS
            64 MiB allocation reported by mallinfo(arena+hblkhd)
        345273 MiB available memory on the node where the printing process lives
------------------
     ethr =  3.16E-08,  avg # of iterations =  2.0

     negative rho (up, down):  8.343E-04 0.000E+00

     total cpu time spent up to now is        9.8 secs

     total energy              =     -34.56471814 Ry
     estimated scf accuracy    <       0.00000075 Ry

     iteration # 10     ecut=    40.00 Ry     beta= 0.70
     Davidson diagonalization with overlap

---- Real-time Memory Report at c_bands before calling an iterative solver
           283 MiB given to the printing process from OS
            65 MiB allocation reported by mallinfo(arena+hblkhd)
        345412 MiB available memory on the node where the printing process lives
------------------
     ethr =  9.38E-09,  avg # of iterations =  1.0

     negative rho (up, down):  8.347E-04 0.000E+00

     total cpu time spent up to now is       10.0 secs

     total energy              =     -34.56471810 Ry
     estimated scf accuracy    <       0.00000022 Ry

     iteration # 11     ecut=    40.00 Ry     beta= 0.70
     Davidson diagonalization with overlap

---- Real-time Memory Report at c_bands before calling an iterative solver
           284 MiB given to the printing process from OS
            65 MiB allocation reported by mallinfo(arena+hblkhd)
        345274 MiB available memory on the node where the printing process lives
------------------
     ethr =  2.70E-09,  avg # of iterations =  2.0

     negative rho (up, down):  8.348E-04 0.000E+00

     total cpu time spent up to now is       10.3 secs

     total energy              =     -34.56471811 Ry
     estimated scf accuracy    <       0.00000002 Ry

     iteration # 12     ecut=    40.00 Ry     beta= 0.70
     Davidson diagonalization with overlap

---- Real-time Memory Report at c_bands before calling an iterative solver
           284 MiB given to the printing process from OS
            65 MiB allocation reported by mallinfo(arena+hblkhd)
        345241 MiB available memory on the node where the printing process lives
------------------
     ethr =  2.61E-10,  avg # of iterations =  3.0

     negative rho (up, down):  8.347E-04 0.000E+00

     total cpu time spent up to now is       10.5 secs

     total energy              =     -34.56471812 Ry
     estimated scf accuracy    <       0.00000002 Ry

     iteration # 13     ecut=    40.00 Ry     beta= 0.70
     Davidson diagonalization with overlap

---- Real-time Memory Report at c_bands before calling an iterative solver
           284 MiB given to the printing process from OS
            65 MiB allocation reported by mallinfo(arena+hblkhd)
        345145 MiB available memory on the node where the printing process lives
------------------
     ethr =  2.22E-10,  avg # of iterations =  1.0

     negative rho (up, down):  8.347E-04 0.000E+00

     total cpu time spent up to now is       10.8 secs

     End of self-consistent calculation

          k = 0.0000 0.0000 0.0000 (  7386 PWs)   bands (ev):

   -23.1664 -11.0217  -8.9353  -6.6330

     occupation numbers 
     1.0000   1.0000   1.0000   1.0000

     highest occupied level (ev):    -6.6330

!    total energy              =     -34.56471812 Ry
     estimated scf accuracy    <          2.7E-09 Ry

     The total energy is the sum of the following terms:
     one-electron contribution =     -54.28671384 Ry
     hartree contribution      =      28.76856163 Ry
     xc contribution           =      -8.36093300 Ry
     ewald contribution        =      -0.68563291 Ry

     convergence has been achieved in  13 iterations

     negative rho (up, down):  8.347E-04 0.000E+00

     Forces acting on atoms (cartesian axes, Ry/au):

     atom    1 type  1   force =     0.00000000    0.00000000    0.23915549
     atom    2 type  2   force =     0.16203612    0.00000000   -0.11957774
     atom    3 type  2   force =    -0.16203612    0.00000000   -0.11957774
     The non-local contrib.  to forces
     atom    1 type  1   force =     0.00000000    0.00000000    1.98472119
     atom    2 type  2   force =     0.10030174    0.00000000   -0.07428406
     atom    3 type  2   force =    -0.10030174    0.00000000   -0.07428406
     The ionic contribution  to forces
     atom    1 type  1   force =    -0.00000000   -0.00000000   -2.96620913
     atom    2 type  2   force =    -1.96020575   -0.00000000    1.48310457
     atom    3 type  2   force =     1.96020575    0.00000000    1.48310457
     The local contribution  to forces
     atom    1 type  1   force =     0.00000000   -0.00000000    1.23500125
     atom    2 type  2   force =     2.02193229   -0.00000000   -1.52837262
     atom    3 type  2   force =    -2.02193229   -0.00000000   -1.52837262
     The core correction contribution to forces
     atom    1 type  1   force =    -0.00000000    0.00000000   -0.01427988
     atom    2 type  2   force =     0.00000000    0.00000000    0.00000000
     atom    3 type  2   force =     0.00000000    0.00000000    0.00000000
     The Hubbard contrib.    to forces
     atom    1 type  1   force =     0.00000000    0.00000000    0.00000000
     atom    2 type  2   force =     0.00000000    0.00000000    0.00000000
     atom    3 type  2   force =     0.00000000    0.00000000    0.00000000
     The SCF correction term to forces
     atom    1 type  1   force =    -0.00000000    0.00000000   -0.00006294
     atom    2 type  2   force =     0.00000783   -0.00000000   -0.00001063
     atom    3 type  2   force =    -0.00000783   -0.00000000   -0.00001063

     Total force =     0.371893     Total SCF correction =     0.000066
     Energy error            =      1.8E-01 Ry
     Gradient error          =      2.4E-01 Ry/Bohr

     number of scf cycles    =   2
     number of bfgs steps    =   1

     energy             old  =     -34.3853277845 Ry
     energy             new  =     -34.5647181242 Ry

     CASE: energy            _new < energy            _old


     WARNING: bfgs curvature condition failed, Theta= 0.940
     new trust radius        =       0.3380208649 bohr
     new conv_thr            =       0.0000000100 Ry


ATOMIC_POSITIONS (angstrom)
O                4.0000000000        4.0000000000        4.3414847008
H                3.1948359127        4.0000000000        4.8292576496
H                4.8051640873        4.0000000000        4.8292576496



     Writing config-only to output data dir ./h2o.save/ :
     XML data file
     NEW-OLD atomic charge density approx. for the potential

     negative rho (up, down):  3.917E-03 0.000E+00

     total cpu time spent up to now is       11.2 secs

     per-process dynamical memory:    58.7 Mb

     Self-consistent Calculation

     iteration #  1     ecut=    40.00 Ry     beta= 0.70
     Davidson diagonalization with overlap

---- Real-time Memory Report at c_bands before calling an iterative solver
           284 MiB given to the printing process from OS
            57 MiB allocation reported by mallinfo(arena+hblkhd)
        345057 MiB available memory on the node where the printing process lives
------------------
     ethr =  1.00E-06,  avg # of iterations =  9.0

     negative rho (up, down):  1.112E-03 0.000E+00

     total cpu time spent up to now is       11.5 secs

     total energy              =     -34.60514040 Ry
     estimated scf accuracy    <       0.11611447 Ry

     iteration #  2     ecut=    40.00 Ry     beta= 0.70
     Davidson diagonalization with overlap

---- Real-time Memory Report at c_bands before calling an iterative solver
           284 MiB given to the printing process from OS
            58 MiB allocation reported by mallinfo(arena+hblkhd)
        344967 MiB available memory on the node where the printing process lives
------------------
     ethr =  1.45E-03,  avg # of iterations =  2.0

     negative rho (up, down):  1.060E-03 0.000E+00

     total cpu time spent up to now is       11.8 secs

     total energy              =     -34.64150977 Ry
     estimated scf accuracy    <       0.08558598 Ry

     iteration #  3     ecut=    40.00 Ry     beta= 0.70
     Davidson diagonalization with overlap

---- Real-time Memory Report at c_bands before calling an iterative solver
           284 MiB given to the printing process from OS
            59 MiB allocation reported by mallinfo(arena+hblkhd)
        345021 MiB available memory on the node where the printing process lives
------------------
     ethr =  1.07E-03,  avg # of iterations =  2.0

     negative rho (up, down):  8.722E-04 0.000E+00

     total cpu time spent up to now is       12.0 secs

     total energy              =     -34.65410739 Ry
     estimated scf accuracy    <       0.00076167 Ry

     iteration #  4     ecut=    40.00 Ry     beta= 0.70
     Davidson diagonalization with overlap

---- Real-time Memory Report at c_bands before calling an iterative solver
           284 MiB given to the printing process from OS
            60 MiB allocation reported by mallinfo(arena+hblkhd)
        344954 MiB available memory on the node where the printing process lives
------------------
     ethr =  9.52E-06,  avg # of iterations =  3.0

     negative rho (up, down):  9.137E-04 0.000E+00

     total cpu time spent up to now is       12.3 secs

     total energy              =     -34.65451719 Ry
     estimated scf accuracy    <       0.00058743 Ry

     iteration #  5     ecut=    40.00 Ry     beta= 0.70
     Davidson diagonalization with overlap

---- Real-time Memory Report at c_bands before calling an iterative solver
           284 MiB given to the printing process from OS
            61 MiB allocation reported by mallinfo(arena+hblkhd)
        344799 MiB available memory on the node where the printing process lives
------------------
     ethr =  7.34E-06,  avg # of iterations =  2.0

     negative rho (up, down):  9.241E-04 0.000E+00

     total cpu time spent up to now is       12.5 secs

     total energy              =     -34.65460165 Ry
     estimated scf accuracy    <       0.00001521 Ry

     iteration #  6     ecut=    40.00 Ry     beta= 0.70
     Davidson diagonalization with overlap

---- Real-time Memory Report at c_bands before calling an iterative solver
           284 MiB given to the printing process from OS
            62 MiB allocation reported by mallinfo(arena+hblkhd)
        344832 MiB available memory on the node where the printing process lives
------------------
     ethr =  1.90E-07,  avg # of iterations =  3.0

     negative rho (up, down):  9.238E-04 0.000E+00

     total cpu time spent up to now is       12.8 secs

     total energy              =     -34.65460942 Ry
     estimated scf accuracy    <       0.00000378 Ry

     iteration #  7     ecut=    40.00 Ry     beta= 0.70
     Davidson diagonalization with overlap

---- Real-time Memory Report at c_bands before calling an iterative solver
           284 MiB given to the printing process from OS
            63 MiB allocation reported by mallinfo(arena+hblkhd)
        344873 MiB available memory on the node where the printing process lives
------------------
     ethr =  4.72E-08,  avg # of iterations =  2.0

     negative rho (up, down):  9.237E-04 0.000E+00

     total cpu time spent up to now is       13.0 secs

     total energy              =     -34.65460986 Ry
     estimated scf accuracy    <       0.00000013 Ry

     iteration #  8     ecut=    40.00 Ry     beta= 0.70
     Davidson diagonalization with overlap

---- Real-time Memory Report at c_bands before calling an iterative solver
           284 MiB given to the printing process from OS
            64 MiB allocation reported by mallinfo(arena+hblkhd)
        344861 MiB available memory on the node where the printing process lives
------------------
     ethr =  1.65E-09,  avg # of iterations =  3.0

     negative rho (up, down):  9.240E-04 0.000E+00

     total cpu time spent up to now is       13.3 secs

     total energy              =     -34.65460992 Ry
     estimated scf accuracy    <       0.00000002 Ry

     iteration #  9     ecut=    40.00 Ry     beta= 0.70
     Davidson diagonalization with overlap

---- Real-time Memory Report at c_bands before calling an iterative solver
           284 MiB given to the printing process from OS
            64 MiB allocation reported by mallinfo(arena+hblkhd)
        344837 MiB available memory on the node where the printing process lives
------------------
     ethr =  2.81E-10,  avg # of iterations =  2.0

     negative rho (up, down):  9.241E-04 0.000E+00

     total cpu time spent up to now is       13.5 secs

     End of self-consistent calculation

          k = 0.0000 0.0000 0.0000 (  7386 PWs)   bands (ev):

   -25.1214 -13.7300  -8.5024  -7.0150

     occupation numbers 
     1.0000   1.0000   1.0000   1.0000

     highest occupied level (ev):    -7.0150

!    total energy              =     -34.65460993 Ry
     estimated scf accuracy    <          8.2E-11 Ry

     The total energy is the sum of the following terms:
     one-electron contribution =     -59.28028001 Ry
     hartree contribution      =      31.17801008 Ry
     xc contribution           =      -8.74705009 Ry
     ewald contribution        =       2.19471010 Ry

     convergence has been achieved in   9 iterations

     negative rho (up, down):  9.241E-04 0.000E+00

     Forces acting on atoms (cartesian axes, Ry/au):

     atom    1 type  1   force =     0.00000000    0.00000000   -0.13102113
     atom    2 type  2   force =    -0.04569282    0.00000000    0.06551057
     atom    3 type  2   force =     0.04569282    0.00000000    0.06551057
     The non-local contrib.  to forces
     atom    1 type  1   force =     0.00000000    0.00000000    1.99738608
     atom    2 type  2   force =     0.24033527    0.00000000   -0.12686323
     atom    3 type  2   force =    -0.24033527    0.00000000   -0.12686323
     The ionic contribution  to forces
     atom    1 type  1   force =     0.00000000   -0.00000000   -3.90349242
     atom    2 type  2   force =    -3.42837420   -0.00000000    1.95174621
     atom    3 type  2   force =     3.42837420   -0.00000000    1.95174621
     The local contribution  to forces
     atom    1 type  1   force =     0.00000000   -0.00000000    1.78556277
     atom    2 type  2   force =     3.14234813    0.00000000   -1.75938151
     atom    3 type  2   force =    -3.14234813    0.00000000   -1.75938151
     The core correction contribution to forces
     atom    1 type  1   force =    -0.00000000    0.00000000   -0.01049272
     atom    2 type  2   force =     0.00000000    0.00000000    0.00000000
     atom    3 type  2   force =     0.00000000    0.00000000    0.00000000
     The Hubbard contrib.    to forces
     atom    1 type  1   force =     0.00000000    0.00000000    0.00000000
     atom    2 type  2   force =     0.00000000    0.00000000    0.00000000
     atom    3 type  2   force =     0.00000000    0.00000000    0.00000000
     The SCF correction term to forces
     atom    1 type  1   force =     0.00000000    0.00000000    0.00000793
     atom    2 type  2   force =    -0.00000201   -0.00000000    0.00000187
     atom    3 type  2   force =     0.00000201    0.00000000    0.00000187

     Total force =     0.172990     Total SCF correction =     0.000009
     Energy error            =      9.0E-02 Ry
     Gradient error          =      1.3E-01 Ry/Bohr

     number of scf cycles    =   3
     number of bfgs steps    =   2

     energy             old  =     -34.5647181242 Ry
     energy             new  =     -34.6546099265 Ry

     CASE: energy            _new < energy            _old

     new trust radius        =       0.1181666607 bohr
     new conv_thr            =       0.0000000100 Ry


ATOMIC_POSITIONS (angstrom)
O                4.0000000000        4.0000000000        4.2789535969
H                3.1684319238        4.0000000000        4.8605232016
H                4.8315680762        4.0000000000        4.8605232016



     Writing config-only to output data dir ./h2o.save/ :
     XML data file
     NEW-OLD atomic charge density approx. for the potential

     negative rho (up, down):  8.010E-04 0.000E+00

     total cpu time spent up to now is       14.0 secs

     per-process dynamical memory:    58.7 Mb

     Self-consistent Calculation

     iteration #  1     ecut=    40.00 Ry     beta= 0.70
     Davidson diagonalization with overlap

---- Real-time Memory Report at c_bands before calling an iterative solver
           284 MiB given to the printing process from OS
            57 MiB allocation reported by mallinfo(arena+hblkhd)
        344824 MiB available memory on the node where the printing process lives
------------------
     ethr =  1.00E-06,  avg # of iterations =  7.0

     negative rho (up, down):  7.807E-04 0.000E+00

     total cpu time spent up to now is       14.2 secs

     total energy              =     -34.65371681 Ry
     estimated scf accuracy    <       0.01493903 Ry

     iteration #  2     ecut=    40.00 Ry     beta= 0.70
     Davidson diagonalization with overlap

---- Real-time Memory Report at c_bands before calling an iterative solver
           284 MiB given to the printing process from OS
            58 MiB allocation reported by mallinfo(arena+hblkhd)
        344775 MiB available memory on the node where the printing process lives
------------------
     ethr =  1.87E-04,  avg # of iterations =  2.0

     negative rho (up, down):  8.879E-04 0.000E+00

     total cpu time spent up to now is       14.5 secs

     total energy              =     -34.65818575 Ry
     estimated scf accuracy    <       0.01268126 Ry

     iteration #  3     ecut=    40.00 Ry     beta= 0.70
     Davidson diagonalization with overlap

---- Real-time Memory Report at c_bands before calling an iterative solver
           284 MiB given to the printing process from OS
            59 MiB allocation reported by mallinfo(arena+hblkhd)
        344770 MiB available memory on the node where the printing process lives
------------------
     ethr =  1.59E-04,  avg # of iterations =  2.0

     negative rho (up, down):  9.098E-04 0.000E+00

     total cpu time spent up to now is       14.7 secs

     total energy              =     -34.66003438 Ry
     estimated scf accuracy    <       0.00011660 Ry

     iteration #  4     ecut=    40.00 Ry     beta= 0.70
     Davidson diagonalization with overlap

---- Real-time Memory Report at c_bands before calling an iterative solver
           284 MiB given to the printing process from OS
            60 MiB allocation reported by mallinfo(arena+hblkhd)
        344746 MiB available memory on the node where the printing process lives
------------------
     ethr =  1.46E-06,  avg # of iterations =  3.0

     negative rho (up, down):  9.069E-04 0.000E+00

     total cpu time spent up to now is       15.0 secs

     total energy              =     -34.66009870 Ry
     estimated scf accuracy    <       0.00010661 Ry

     iteration #  5     ecut=    40.00 Ry     beta= 0.70
     Davidson diagonalization with overlap

---- Real-time Memory Report at c_bands before calling an iterative solver
           284 MiB given to the printing process from OS
            61 MiB allocation reported by mallinfo(arena+hblkhd)
        344873 MiB available memory on the node where the printing process lives
------------------
     ethr =  1.33E-06,  avg # of iterations =  2.0

     negative rho (up, down):  9.082E-04 0.000E+00

     total cpu time spent up to now is       15.2 secs

     total energy              =     -34.66011830 Ry
     estimated scf accuracy    <       0.00000100 Ry

     iteration #  6     ecut=    40.00 Ry     beta= 0.70
     Davidson diagonalization with overlap

---- Real-time Memory Report at c_bands before calling an iterative solver
           284 MiB given to the printing process from OS
            62 MiB allocation reported by mallinfo(arena+hblkhd)
        344934 MiB available memory on the node where the printing process lives
------------------
     ethr =  1.25E-08,  avg # of iterations =  3.0

     negative rho (up, down):  9.088E-04 0.000E+00

     total cpu time spent up to now is       15.5 secs

     total energy              =     -34.66011914 Ry
     estimated scf accuracy    <       0.00000039 Ry

     iteration #  7     ecut=    40.00 Ry     beta= 0.70
     Davidson diagonalization with overlap

---- Real-time Memory Report at c_bands before calling an iterative solver
           284 MiB given to the printing process from OS
            63 MiB allocation reported by mallinfo(arena+hblkhd)
        344904 MiB available memory on the node where the printing process lives
------------------
     ethr =  4.86E-09,  avg # of iterations =  2.0

     negative rho (up, down):  9.093E-04 0.000E+00

     total cpu time spent up to now is       15.8 secs

     total energy              =     -34.66011912 Ry
     estimated scf accuracy    <       0.00000010 Ry

     iteration #  8     ecut=    40.00 Ry     beta= 0.70
     Davidson diagonalization with overlap

---- Real-time Memory Report at c_bands before calling an iterative solver
           284 MiB given to the printing process from OS
            64 MiB allocation reported by mallinfo(arena+hblkhd)
        345302 MiB available memory on the node where the printing process lives
------------------
     ethr =  1.24E-09,  avg # of iterations =  2.0

     negative rho (up, down):  9.093E-04 0.000E+00

     total cpu time spent up to now is       16.0 secs

     End of self-consistent calculation

          k = 0.0000 0.0000 0.0000 (  7386 PWs)   bands (ev):

   -24.4568 -12.7035  -8.7341  -6.8764

     occupation numbers 
     1.0000   1.0000   1.0000   1.0000

     highest occupied level (ev):    -6.8764

!    total energy              =     -34.66011915 Ry
     estimated scf accuracy    <          5.5E-09 Ry

     The total energy is the sum of the following terms:
     one-electron contribution =     -57.64162143 Ry
     hartree contribution      =      30.39053077 Ry
     xc contribution           =      -8.61561339 Ry
     ewald contribution        =       1.20658491 Ry

     convergence has been achieved in   8 iterations

     negative rho (up, down):  9.093E-04 0.000E+00

     Forces acting on atoms (cartesian axes, Ry/au):

     atom    1 type  1   force =     0.00000000    0.00000000    0.04254478
     atom    2 type  2   force =     0.06685381    0.00000000   -0.02127239
     atom    3 type  2   force =    -0.06685381   -0.00000000   -0.02127239
     The non-local contrib.  to forces
     atom    1 type  1   force =     0.00000000    0.00000000    2.08486241
     atom    2 type  2   force =     0.18420173    0.00000000   -0.11460121
     atom    3 type  2   force =    -0.18420173    0.00000000   -0.11460121
     The ionic contribution  to forces
     atom    1 type  1   force =    -0.00000000   -0.00000000   -3.70958525
     atom    2 type  2   force =    -2.84503179   -0.00000000    1.85479263
     atom    3 type  2   force =     2.84503179   -0.00000000    1.85479263
     The local contribution  to forces
     atom    1 type  1   force =    -0.00000000   -0.00000000    1.67969888
     atom    2 type  2   force =     2.72766880   -0.00000000   -1.76144234
     atom    3 type  2   force =    -2.72766880    0.00000000   -1.76144234
     The core correction contribution to forces
     atom    1 type  1   force =     0.00000000   -0.00000000   -0.01235194
     atom    2 type  2   force =     0.00000000    0.00000000    0.00000000
     atom    3 type  2   force =     0.00000000    0.00000000    0.00000000
     The Hubbard contrib.    to forces
     atom    1 type  1   force =     0.00000000    0.00000000    0.00000000
     atom    2 type  2   force =     0.00000000    0.00000000    0.00000000
     atom    3 type  2   force =     0.00000000    0.00000000    0.00000000
     The SCF correction term to forces
     atom    1 type  1   force =     0.00000000    0.00000000   -0.00007508
     atom    2 type  2   force =     0.00001507   -0.00000000   -0.00001722
     atom    3 type  2   force =    -0.00001507    0.00000000   -0.00001722

     Total force =     0.107953     Total SCF correction =     0.000082
     Energy error            =      5.5E-03 Ry
     Gradient error          =      6.7E-02 Ry/Bohr

     number of scf cycles    =   4
     number of bfgs steps    =   3

     energy             old  =     -34.6546099265 Ry
     energy             new  =     -34.6601191489 Ry

     CASE: energy            _new < energy            _old

     new trust radius        =       0.0420863056 bohr
     new conv_thr            =       0.0000000055 Ry


ATOMIC_POSITIONS (angstrom)
O                4.0000000000        4.0000000000        4.2890918234
H                3.1901184772        4.0000000000        4.8554540883
H                4.8098815228        4.0000000000        4.8554540883



     Writing config-only to output data dir ./h2o.save/ :
     XML data file
     NEW-OLD atomic charge density approx. for the potential

     negative rho (up, down):  9.984E-04 0.000E+00

     total cpu time spent up to now is       16.4 secs

     per-process dynamical memory:    58.7 Mb

     Self-consistent Calculation

     iteration #  1     ecut=    40.00 Ry     beta= 0.70
     Davidson diagonalization with overlap

---- Real-time Memory Report at c_bands before calling an iterative solver
           284 MiB given to the printing process from OS
            57 MiB allocation reported by mallinfo(arena+hblkhd)
        345909 MiB available memory on the node where the printing process lives
------------------
     ethr =  1.00E-06,  avg # of iterations =  5.0

     negative rho (up, down):  9.586E-04 0.000E+00

     total cpu time spent up to now is       16.7 secs

     total energy              =     -34.66410035 Ry
     estimated scf accuracy    <       0.00139902 Ry

     iteration #  2     ecut=    40.00 Ry     beta= 0.70
     Davidson diagonalization with overlap

---- Real-time Memory Report at c_bands before calling an iterative solver
           284 MiB given to the printing process from OS
            58 MiB allocation reported by mallinfo(arena+hblkhd)
        345640 MiB available memory on the node where the printing process lives
------------------
     ethr =  1.75E-05,  avg # of iterations =  2.0

     negative rho (up, down):  9.405E-04 0.000E+00

     total cpu time spent up to now is       16.9 secs

     total energy              =     -34.66451628 Ry
     estimated scf accuracy    <       0.00108915 Ry

     iteration #  3     ecut=    40.00 Ry     beta= 0.70
     Davidson diagonalization with overlap

---- Real-time Memory Report at c_bands before calling an iterative solver
           284 MiB given to the printing process from OS
            59 MiB allocation reported by mallinfo(arena+hblkhd)
        345586 MiB available memory on the node where the printing process lives
------------------
     ethr =  1.36E-05,  avg # of iterations =  2.0

     negative rho (up, down):  9.267E-04 0.000E+00

     total cpu time spent up to now is       17.2 secs

     total energy              =     -34.66467869 Ry
     estimated scf accuracy    <       0.00000938 Ry

     iteration #  4     ecut=    40.00 Ry     beta= 0.70
     Davidson diagonalization with overlap

---- Real-time Memory Report at c_bands before calling an iterative solver
           284 MiB given to the printing process from OS
            60 MiB allocation reported by mallinfo(arena+hblkhd)
        345482 MiB available memory on the node where the printing process lives
------------------
     ethr =  1.17E-07,  avg # of iterations =  3.0

     negative rho (up, down):  9.292E-04 0.000E+00

     total cpu time spent up to now is       17.4 secs

     total energy              =     -34.66468361 Ry
     estimated scf accuracy    <       0.00000921 Ry

     iteration #  5     ecut=    40.00 Ry     beta= 0.70
     Davidson diagonalization with overlap

---- Real-time Memory Report at c_bands before calling an iterative solver
           284 MiB given to the printing process from OS
            61 MiB allocation reported by mallinfo(arena+hblkhd)
        345318 MiB available memory on the node where the printing process lives
------------------
     ethr =  1.15E-07,  avg # of iterations =  2.0

     negative rho (up, down):  9.290E-04 0.000E+00

     total cpu time spent up to now is       17.7 secs

     total energy              =     -34.66468528 Ry
     estimated scf accuracy    <       0.00000009 Ry

     iteration #  6     ecut=    40.00 Ry     beta= 0.70
     Davidson diagonalization with overlap

---- Real-time Memory Report at c_bands before calling an iterative solver
           284 MiB given to the printing process from OS
            62 MiB allocation reported by mallinfo(arena+hblkhd)
        345188 MiB available memory on the node where the printing process lives
------------------
     ethr =  1.09E-09,  avg # of iterations =  3.0

     negative rho (up, down):  9.289E-04 0.000E+00

     total cpu time spent up to now is       17.9 secs

     total energy              =     -34.66468535 Ry
     estimated scf accuracy    <       0.00000005 Ry

     iteration #  7     ecut=    40.00 Ry     beta= 0.70
     Davidson diagonalization with overlap

---- Real-time Memory Report at c_bands before calling an iterative solver
           284 MiB given to the printing process from OS
            63 MiB allocation reported by mallinfo(arena+hblkhd)
        345060 MiB available memory on the node where the printing process lives
------------------
     ethr =  6.24E-10,  avg # of iterations =  2.0

     negative rho (up, down):  9.288E-04 0.000E+00

     total cpu time spent up to now is       18.2 secs

     End of self-consistent calculation

          k = 0.0000 0.0000 0.0000 (  7386 PWs)   bands (ev):

   -24.7276 -12.9464  -8.7755  -6.9347

     occupation numbers 
     1.0000   1.0000   1.0000   1.0000

     highest occupied level (ev):    -6.9347

!    total energy              =     -34.66468535 Ry
     estimated scf accuracy    <          5.1E-09 Ry

     The total energy is the sum of the following terms:
     one-electron contribution =     -58.22633099 Ry
     hartree contribution      =      30.66777565 Ry
     xc contribution           =      -8.66175521 Ry
     ewald contribution        =       1.55562520 Ry

     convergence has been achieved in   7 iterations

     negative rho (up, down):  9.288E-04 0.000E+00

     Forces acting on atoms (cartesian axes, Ry/au):

     atom    1 type  1   force =     0.00000000    0.00000000   -0.00449751
     atom    2 type  2   force =     0.02937861    0.00000000    0.00224875
     atom    3 type  2   force =    -0.02937861    0.00000000    0.00224875
     The non-local contrib.  to forces
     atom    1 type  1   force =     0.00000000    0.00000000    2.09580695
     atom    2 type  2   force =     0.19959426   -0.00000000   -0.12492843
     atom    3 type  2   force =    -0.19959426    0.00000000   -0.12492843
     The ionic contribution  to forces
     atom    1 type  1   force =     0.00000000   -0.00000000   -3.91334129
     atom    2 type  2   force =    -3.00224021    0.00000000    1.95667064
     atom    3 type  2   force =     3.00224021    0.00000000    1.95667064
     The local contribution  to forces
     atom    1 type  1   force =     0.00000000   -0.00000000    1.82492599
     atom    2 type  2   force =     2.83201048   -0.00000000   -1.82945794
     atom    3 type  2   force =    -2.83201048   -0.00000000   -1.82945794
     The core correction contribution to forces
     atom    1 type  1   force =    -0.00000000    0.00000000   -0.01180345
     atom    2 type  2   force =     0.00000000    0.00000000    0.00000000
     atom    3 type  2   force =     0.00000000    0.00000000    0.00000000
     The Hubbard contrib.    to forces
     atom    1 type  1   force =     0.00000000    0.00000000    0.00000000
     atom    2 type  2   force =     0.00000000    0.00000000    0.00000000
     atom    3 type  2   force =     0.00000000    0.00000000    0.00000000
     The SCF correction term to forces
     atom    1 type  1   force =     0.00000000    0.00000000   -0.00006518
     atom    2 type  2   force =     0.00001409   -0.00000000   -0.00001499
     atom    3 type  2   force =    -0.00001409    0.00000000   -0.00001499

     Total force =     0.041911     Total SCF correction =     0.000071
     Energy error            =      4.6E-03 Ry
     Gradient error          =      2.9E-02 Ry/Bohr

     number of scf cycles    =   5
     number of bfgs steps    =   4

     energy             old  =     -34.6601191489 Ry
     energy             new  =     -34.6646853483 Ry

     CASE: energy            _new < energy            _old

     new trust radius        =       0.0429661120 bohr
     new conv_thr            =       0.0000000029 Ry


ATOMIC_POSITIONS (angstrom)
O                4.0000000000        4.0000000000        4.2823012089
H                3.2126002218        4.0000000000        4.8588493956
H                4.7873997782        4.0000000000        4.8588493956



     Writing config-only to output data dir ./h2o.save/ :
     XML data file
     NEW-OLD atomic charge density approx. for the potential

     negative rho (up, down):  1.001E-03 0.000E+00

     total cpu time spent up to now is       18.6 secs

     per-process dynamical memory:    58.7 Mb

     Self-consistent Calculation

     iteration #  1     ecut=    40.00 Ry     beta= 0.70
     Davidson diagonalization with overlap

---- Real-time Memory Report at c_bands before calling an iterative solver
           284 MiB given to the printing process from OS
            57 MiB allocation reported by mallinfo(arena+hblkhd)
        345486 MiB available memory on the node where the printing process lives
------------------
     ethr =  1.00E-06,  avg # of iterations =  6.0

     negative rho (up, down):  9.523E-04 0.000E+00

     total cpu time spent up to now is       18.8 secs

     total energy              =     -34.66626694 Ry
     estimated scf accuracy    <       0.00026831 Ry

     iteration #  2     ecut=    40.00 Ry     beta= 0.70
     Davidson diagonalization with overlap

---- Real-time Memory Report at c_bands before calling an iterative solver
           284 MiB given to the printing process from OS
            59 MiB allocation reported by mallinfo(arena+hblkhd)
        345371 MiB available memory on the node where the printing process lives
------------------
     ethr =  3.35E-06,  avg # of iterations =  2.0

     negative rho (up, down):  9.433E-04 0.000E+00

     total cpu time spent up to now is       19.1 secs

     total energy              =     -34.66631846 Ry
     estimated scf accuracy    <       0.00013853 Ry

     iteration #  3     ecut=    40.00 Ry     beta= 0.70
     Davidson diagonalization with overlap

---- Real-time Memory Report at c_bands before calling an iterative solver
           284 MiB given to the printing process from OS
            60 MiB allocation reported by mallinfo(arena+hblkhd)
        345084 MiB available memory on the node where the printing process lives
------------------
     ethr =  1.73E-06,  avg # of iterations =  2.0

     negative rho (up, down):  9.339E-04 0.000E+00

     total cpu time spent up to now is       19.3 secs

     total energy              =     -34.66634659 Ry
     estimated scf accuracy    <       0.00000287 Ry

     iteration #  4     ecut=    40.00 Ry     beta= 0.70
     Davidson diagonalization with overlap

---- Real-time Memory Report at c_bands before calling an iterative solver
           284 MiB given to the printing process from OS
            60 MiB allocation reported by mallinfo(arena+hblkhd)
        345040 MiB available memory on the node where the printing process lives
------------------
     ethr =  3.58E-08,  avg # of iterations =  2.0

     negative rho (up, down):  9.347E-04 0.000E+00

     total cpu time spent up to now is       19.6 secs

     total energy              =     -34.66634646 Ry
     estimated scf accuracy    <       0.00000074 Ry

     iteration #  5     ecut=    40.00 Ry     beta= 0.70
     Davidson diagonalization with overlap

---- Real-time Memory Report at c_bands before calling an iterative solver
           284 MiB given to the printing process from OS
            61 MiB allocation reported by mallinfo(arena+hblkhd)
        345446 MiB available memory on the node where the printing process lives
------------------
     ethr =  9.28E-09,  avg # of iterations =  2.0

     negative rho (up, down):  9.349E-04 0.000E+00

     total cpu time spent up to now is       19.9 secs

     total energy              =     -34.66634663 Ry
     estimated scf accuracy    <       0.00000001 Ry

     iteration #  6     ecut=    40.00 Ry     beta= 0.70
     Davidson diagonalization with overlap

---- Real-time Memory Report at c_bands before calling an iterative solver
           284 MiB given to the printing process from OS
            62 MiB allocation reported by mallinfo(arena+hblkhd)
        345452 MiB available memory on the node where the printing process lives
------------------
     ethr =  1.26E-10,  avg # of iterations =  2.0

     negative rho (up, down):  9.349E-04 0.000E+00

     total cpu time spent up to now is       20.1 secs

     End of self-consistent calculation

          k = 0.0000 0.0000 0.0000 (  7386 PWs)   bands (ev):

   -24.9024 -12.9512  -8.9173  -6.9752

     occupation numbers 
     1.0000   1.0000   1.0000   1.0000

     highest occupied level (ev):    -6.9752

!    total energy              =     -34.66634663 Ry
     estimated scf accuracy    <          1.7E-09 Ry

     The total energy is the sum of the following terms:
     one-electron contribution =     -58.51937648 Ry
     hartree contribution      =      30.80270932 Ry
     xc contribution           =      -8.68467003 Ry
     ewald contribution        =       1.73499057 Ry

     convergence has been achieved in   6 iterations

     negative rho (up, down):  9.349E-04 0.000E+00

     Forces acting on atoms (cartesian axes, Ry/au):

     atom    1 type  1   force =     0.00000000    0.00000000   -0.02191301
     atom    2 type  2   force =     0.00358992    0.00000000    0.01095650
     atom    3 type  2   force =    -0.00358992    0.00000000    0.01095650
     The non-local contrib.  to forces
     atom    1 type  1   force =     0.00000000    0.00000000    2.13063664
     atom    2 type  2   force =     0.20352284    0.00000000   -0.13540996
     atom    3 type  2   force =    -0.20352284    0.00000000   -0.13540996
     The ionic contribution  to forces
     atom    1 type  1   force =     0.00000000   -0.00000000   -4.13803468
     atom    2 type  2   force =    -3.04273273   -0.00000000    2.06901734
     atom    3 type  2   force =     3.04273273   -0.00000000    2.06901734
     The local contribution  to forces
     atom    1 type  1   force =     0.00000000    0.00000000    1.99709211
     atom    2 type  2   force =     2.84279302    0.00000000   -1.92263407
     atom    3 type  2   force =    -2.84279302   -0.00000000   -1.92263407
     The core correction contribution to forces
     atom    1 type  1   force =    -0.00000000   -0.00000000   -0.01155679
     atom    2 type  2   force =     0.00000000    0.00000000    0.00000000
     atom    3 type  2   force =     0.00000000    0.00000000    0.00000000
     The Hubbard contrib.    to forces
     atom    1 type  1   force =     0.00000000    0.00000000    0.00000000
     atom    2 type  2   force =     0.00000000    0.00000000    0.00000000
     atom    3 type  2   force =     0.00000000    0.00000000    0.00000000
     The SCF correction term to forces
     atom    1 type  1   force =     0.00000000    0.00000000   -0.00004294
     atom    2 type  2   force =     0.00000678   -0.00000000   -0.00000946
     atom    3 type  2   force =    -0.00000678    0.00000000   -0.00000946

     Total force =     0.027314     Total SCF correction =     0.000046
     Energy error            =      1.7E-03 Ry
     Gradient error          =      2.2E-02 Ry/Bohr

     number of scf cycles    =   6
     number of bfgs steps    =   5

     energy             old  =     -34.6646853483 Ry
     energy             new  =     -34.6663466264 Ry

     CASE: energy            _new < energy            _old

     new trust radius        =       0.0302002195 bohr
     new conv_thr            =       0.0000000017 Ry


ATOMIC_POSITIONS (angstrom)
O                4.0000000000        4.0000000000        4.2685437207
H                3.2270253320        4.0000000000        4.8657281396
H                4.7729746680        4.0000000000        4.8657281396



     Writing config-only to output data dir ./h2o.save/ :
     XML data file
     NEW-OLD atomic charge density approx. for the potential

     negative rho (up, down):  9.601E-04 0.000E+00

     total cpu time spent up to now is       20.5 secs

     per-process dynamical memory:    58.7 Mb

     Self-consistent Calculation

     iteration #  1     ecut=    40.00 Ry     beta= 0.70
     Davidson diagonalization with overlap

---- Real-time Memory Report at c_bands before calling an iterative solver
           284 MiB given to the printing process from OS
            57 MiB allocation reported by mallinfo(arena+hblkhd)
        345375 MiB available memory on the node where the printing process lives
------------------
     ethr =  1.00E-06,  avg # of iterations =  5.0

     negative rho (up, down):  9.352E-04 0.000E+00

     total cpu time spent up to now is       20.8 secs

     total energy              =     -34.66700053 Ry
     estimated scf accuracy    <       0.00010119 Ry

     iteration #  2     ecut=    40.00 Ry     beta= 0.70
     Davidson diagonalization with overlap

---- Real-time Memory Report at c_bands before calling an iterative solver
           284 MiB given to the printing process from OS
            59 MiB allocation reported by mallinfo(arena+hblkhd)
        345259 MiB available memory on the node where the printing process lives
------------------
     ethr =  1.26E-06,  avg # of iterations =  2.0

     negative rho (up, down):  9.391E-04 0.000E+00

     total cpu time spent up to now is       21.0 secs

     total energy              =     -34.66701160 Ry
     estimated scf accuracy    <       0.00003574 Ry

     iteration #  3     ecut=    40.00 Ry     beta= 0.70
     Davidson diagonalization with overlap

---- Real-time Memory Report at c_bands before calling an iterative solver
           284 MiB given to the printing process from OS
            60 MiB allocation reported by mallinfo(arena+hblkhd)
        345086 MiB available memory on the node where the printing process lives
------------------
     ethr =  4.47E-07,  avg # of iterations =  2.0

     negative rho (up, down):  9.365E-04 0.000E+00

     total cpu time spent up to now is       21.3 secs

     total energy              =     -34.66702003 Ry
     estimated scf accuracy    <       0.00000350 Ry

     iteration #  4     ecut=    40.00 Ry     beta= 0.70
     Davidson diagonalization with overlap

---- Real-time Memory Report at c_bands before calling an iterative solver
           284 MiB given to the printing process from OS
            60 MiB allocation reported by mallinfo(arena+hblkhd)
        344853 MiB available memory on the node where the printing process lives
------------------
     ethr =  4.38E-08,  avg # of iterations =  2.0

     negative rho (up, down):  9.365E-04 0.000E+00

     total cpu time spent up to now is       21.5 secs

     total energy              =     -34.66702022 Ry
     estimated scf accuracy    <       0.00000018 Ry

     iteration #  5     ecut=    40.00 Ry     beta= 0.70
     Davidson diagonalization with overlap

---- Real-time Memory Report at c_bands before calling an iterative solver
           284 MiB given to the printing process from OS
            61 MiB allocation reported by mallinfo(arena+hblkhd)
        344854 MiB available memory on the node where the printing process lives
------------------
     ethr =  2.22E-09,  avg # of iterations =  2.0

     negative rho (up, down):  9.369E-04 0.000E+00

     total cpu time spent up to now is       21.8 secs

     total energy              =     -34.66702029 Ry
     estimated scf accuracy    <       0.00000007 Ry

     iteration #  6     ecut=    40.00 Ry     beta= 0.70
     Davidson diagonalization with overlap

---- Real-time Memory Report at c_bands before calling an iterative solver
           284 MiB given to the printing process from OS
            62 MiB allocation reported by mallinfo(arena+hblkhd)
        344826 MiB available memory on the node where the printing process lives
------------------
     ethr =  8.28E-10,  avg # of iterations =  2.0

     negative rho (up, down):  9.371E-04 0.000E+00

     total cpu time spent up to now is       22.0 secs

     End of self-consistent calculation

          k = 0.0000 0.0000 0.0000 (  7386 PWs)   bands (ev):

   -24.9446 -12.8056  -9.0618  -6.9874

     occupation numbers 
     1.0000   1.0000   1.0000   1.0000

     highest occupied level (ev):    -6.9874

!    total energy              =     -34.66702030 Ry
     estimated scf accuracy    <          7.4E-11 Ry

     The total energy is the sum of the following terms:
     one-electron contribution =     -58.51483321 Ry
     hartree contribution      =      30.79604837 Ry
     xc contribution           =      -8.68369758 Ry
     ewald contribution        =       1.73546213 Ry

     convergence has been achieved in   6 iterations

     negative rho (up, down):  9.371E-04 0.000E+00

     Forces acting on atoms (cartesian axes, Ry/au):

     atom    1 type  1   force =     0.00000000    0.00000000   -0.01042739
     atom    2 type  2   force =    -0.00209861    0.00000000    0.00521369
     atom    3 type  2   force =     0.00209861    0.00000000    0.00521369
     The non-local contrib.  to forces
     atom    1 type  1   force =     0.00000000    0.00000000    2.16483019
     atom    2 type  2   force =     0.19846658    0.00000000   -0.14125189
     atom    3 type  2   force =    -0.19846658    0.00000000   -0.14125189
     The ionic contribution  to forces
     atom    1 type  1   force =    -0.00000000   -0.00000000   -4.27443507
     atom    2 type  2   force =    -2.99220168   -0.00000000    2.13721753
     atom    3 type  2   force =     2.99220168    0.00000000    2.13721753
     The local contribution  to forces
     atom    1 type  1   force =     0.00000000    0.00000000    2.11078523
     atom    2 type  2   force =     2.79163761   -0.00000000   -1.99076048
     atom    3 type  2   force =    -2.79163761    0.00000000   -1.99076048
     The core correction contribution to forces
     atom    1 type  1   force =    -0.00000000   -0.00000000   -0.01160773
     atom    2 type  2   force =     0.00000000    0.00000000    0.00000000
     atom    3 type  2   force =     0.00000000    0.00000000    0.00000000
     The Hubbard contrib.    to forces
     atom    1 type  1   force =     0.00000000    0.00000000    0.00000000
     atom    2 type  2   force =     0.00000000    0.00000000    0.00000000
     atom    3 type  2   force =     0.00000000    0.00000000    0.00000000
     The SCF correction term to forces
     atom    1 type  1   force =    -0.00000000    0.00000000   -0.00000893
     atom    2 type  2   force =    -0.00000111    0.00000000   -0.00000039
     atom    3 type  2   force =     0.00000111    0.00000000   -0.00000039

     Total force =     0.013111     Total SCF correction =     0.000009
     Energy error            =      6.7E-04 Ry
     Gradient error          =      1.0E-02 Ry/Bohr

     number of scf cycles    =   7
     number of bfgs steps    =   6

     energy             old  =     -34.6663466264 Ry
     energy             new  =     -34.6670202987 Ry

     CASE: energy            _new < energy            _old

     new trust radius        =       0.0121079980 bohr
     new conv_thr            =       0.0000000007 Ry


ATOMIC_POSITIONS (angstrom)
O                4.0000000000        4.0000000000        4.2621364441
H                3.2309146820        4.0000000000        4.8689317779
H                4.7690853180        4.0000000000        4.8689317779



     Writing config-only to output data dir ./h2o.save/ :
     XML data file
     NEW-OLD atomic charge density approx. for the potential

     negative rho (up, down):  9.387E-04 0.000E+00

     total cpu time spent up to now is       22.4 secs

     per-process dynamical memory:    58.7 Mb

     Self-consistent Calculation

     iteration #  1     ecut=    40.00 Ry     beta= 0.70
     Davidson diagonalization with overlap

---- Real-time Memory Report at c_bands before calling an iterative solver
           284 MiB given to the printing process from OS
            57 MiB allocation reported by mallinfo(arena+hblkhd)
        344896 MiB available memory on the node where the printing process lives
------------------
     ethr =  1.00E-06,  avg # of iterations =  3.0

     negative rho (up, down):  9.342E-04 0.000E+00

     total cpu time spent up to now is       22.7 secs

     total energy              =     -34.66707852 Ry
     estimated scf accuracy    <       0.00004787 Ry

     iteration #  2     ecut=    40.00 Ry     beta= 0.70
     Davidson diagonalization with overlap

---- Real-time Memory Report at c_bands before calling an iterative solver
           284 MiB given to the printing process from OS
            59 MiB allocation reported by mallinfo(arena+hblkhd)
        344819 MiB available memory on the node where the printing process lives
------------------
     ethr =  5.98E-07,  avg # of iterations =  3.0

     negative rho (up, down):  9.373E-04 0.000E+00

     total cpu time spent up to now is       22.9 secs

     total energy              =     -34.66709134 Ry
     estimated scf accuracy    <       0.00004320 Ry

     iteration #  3     ecut=    40.00 Ry     beta= 0.70
     Davidson diagonalization with overlap

---- Real-time Memory Report at c_bands before calling an iterative solver
           284 MiB given to the printing process from OS
            60 MiB allocation reported by mallinfo(arena+hblkhd)
        344752 MiB available memory on the node where the printing process lives
------------------
     ethr =  5.40E-07,  avg # of iterations =  2.0

     negative rho (up, down):  9.374E-04 0.000E+00

     total cpu time spent up to now is       23.2 secs

     total energy              =     -34.66709789 Ry
     estimated scf accuracy    <       0.00000068 Ry

     iteration #  4     ecut=    40.00 Ry     beta= 0.70
     Davidson diagonalization with overlap

---- Real-time Memory Report at c_bands before calling an iterative solver
           284 MiB given to the printing process from OS
            60 MiB allocation reported by mallinfo(arena+hblkhd)
        344838 MiB available memory on the node where the printing process lives
------------------
     ethr =  8.46E-09,  avg # of iterations =  3.0

     negative rho (up, down):  9.373E-04 0.000E+00

     total cpu time spent up to now is       23.4 secs

     total energy              =     -34.66709822 Ry
     estimated scf accuracy    <       0.00000073 Ry

     iteration #  5     ecut=    40.00 Ry     beta= 0.70
     Davidson diagonalization with overlap

---- Real-time Memory Report at c_bands before calling an iterative solver
           284 MiB given to the printing process from OS
            61 MiB allocation reported by mallinfo(arena+hblkhd)
        344823 MiB available memory on the node where the printing process lives
------------------
     ethr =  8.46E-09,  avg # of iterations =  2.0

     negative rho (up, down):  9.370E-04 0.000E+00

     total cpu time spent up to now is       23.7 secs

     total energy              =     -34.66709829 Ry
     estimated scf accuracy    <       0.00000005 Ry

     iteration #  6     ecut=    40.00 Ry     beta= 0.70
     Davidson diagonalization with overlap

---- Real-time Memory Report at c_bands before calling an iterative solver
           284 MiB given to the printing process from OS
            62 MiB allocation reported by mallinfo(arena+hblkhd)
        344790 MiB available memory on the node where the printing process lives
------------------
     ethr =  5.79E-10,  avg # of iterations =  2.0

     negative rho (up, down):  9.370E-04 0.000E+00

     total cpu time spent up to now is       23.9 secs

     End of self-consistent calculation

          k = 0.0000 0.0000 0.0000 (  7386 PWs)   bands (ev):

   -24.9341 -12.7242  -9.1157  -6.9867

     occupation numbers 
     1.0000   1.0000   1.0000   1.0000

     highest occupied level (ev):    -6.9867

!    total energy              =     -34.66709830 Ry
     estimated scf accuracy    <          2.2E-10 Ry

     The total energy is the sum of the following terms:
     one-electron contribution =     -58.45589044 Ry
     hartree contribution      =      30.76623345 Ry
     xc contribution           =      -8.67871220 Ry
     ewald contribution        =       1.70127089 Ry

     convergence has been achieved in   6 iterations

     negative rho (up, down):  9.370E-04 0.000E+00

     Forces acting on atoms (cartesian axes, Ry/au):

     atom    1 type  1   force =     0.00000000    0.00000000   -0.00015225
     atom    2 type  2   force =    -0.00040774    0.00000000    0.00007612
     atom    3 type  2   force =     0.00040774    0.00000000    0.00007612
     The non-local contrib.  to forces
     atom    1 type  1   force =     0.00000000    0.00000000    2.17648192
     atom    2 type  2   force =     0.19494093    0.00000000   -0.14236684
     atom    3 type  2   force =    -0.19494093    0.00000000   -0.14236684
     The ionic contribution  to forces
     atom    1 type  1   force =     0.00000000   -0.00000000   -4.30512977
     atom    2 type  2   force =    -2.95660953   -0.00000000    2.15256488
     atom    3 type  2   force =     2.95660953   -0.00000000    2.15256488
     The local contribution  to forces
     atom    1 type  1   force =    -0.00000000    0.00000000    2.14017606
     atom    2 type  2   force =     2.76126380    0.00000000   -2.01011399
     atom    3 type  2   force =    -2.76126380    0.00000000   -2.01011399
     The core correction contribution to forces
     atom    1 type  1   force =    -0.00000000   -0.00000000   -0.01168307
     atom    2 type  2   force =     0.00000000    0.00000000    0.00000000
     atom    3 type  2   force =     0.00000000    0.00000000    0.00000000
     The Hubbard contrib.    to forces
     atom    1 type  1   force =     0.00000000    0.00000000    0.00000000
     atom    2 type  2   force =     0.00000000    0.00000000    0.00000000
     atom    3 type  2   force =     0.00000000    0.00000000    0.00000000
     The SCF correction term to forces
     atom    1 type  1   force =     0.00000000   -0.00000000    0.00001340
     atom    2 type  2   force =    -0.00000294    0.00000000    0.00000287
     atom    3 type  2   force =     0.00000294    0.00000000    0.00000287

     Total force =     0.000606     Total SCF correction =     0.000015
     Energy error            =      7.8E-05 Ry
     Gradient error          =      4.1E-04 Ry/Bohr

     bfgs converged in   8 scf cycles and   7 bfgs steps
     (criteria: energy <  1.0E-04 Ry, force <  1.0E-03 Ry/Bohr)

     End of BFGS Geometry Optimization

     Final energy             =     -34.6670983045 Ry

     File ./h2o.bfgs deleted, as requested
Begin final coordinates

ATOMIC_POSITIONS (angstrom)
O                4.0000000000        4.0000000000        4.2621364441
H                3.2309146820        4.0000000000        4.8689317779
H                4.7690853180        4.0000000000        4.8689317779
End final coordinates



     Writing all to output data dir ./h2o.save/ :
     XML data file, charge density, pseudopotentials, collected wavefunctions

     init_run     :      0.92s CPU      1.02s WALL (       1 calls)
     electrons    :     13.19s CPU     20.15s WALL (       8 calls)
     update_pot   :      0.40s CPU      0.51s WALL (       7 calls)
     forces       :      0.96s CPU      1.36s WALL (       8 calls)

     Called by init_run:
     wfcinit      :      0.03s CPU      0.04s WALL (       1 calls)
     wfcinit:atom :      0.00s CPU      0.00s WALL (       1 calls)
     wfcinit:wfcr :      0.03s CPU      0.03s WALL (       1 calls)
     potinit      :      0.30s CPU      0.33s WALL (       1 calls)
     hinit0       :      0.53s CPU      0.54s WALL (       1 calls)

     Called by electrons:
     c_bands      :      1.15s CPU      1.23s WALL (      77 calls)
     sum_band     :      3.93s CPU      6.71s WALL (      77 calls)
     v_of_rho     :      4.04s CPU      5.45s WALL (      85 calls)
     v_h          :      0.38s CPU      0.72s WALL (      85 calls)
     v_xc         :      4.02s CPU      5.18s WALL (      93 calls)
     newd         :      3.88s CPU      6.68s WALL (      85 calls)
     mix_rho      :      0.46s CPU      0.48s WALL (      77 calls)

     Called by c_bands:
     init_us_2    :      0.11s CPU      0.11s WALL (     155 calls)
     regterg      :      1.02s CPU      1.07s WALL (      77 calls)

     Called by sum_band:
     sum_band:wei :      0.00s CPU      0.00s WALL (      77 calls)
     sum_band:loo :      0.19s CPU      0.20s WALL (      77 calls)
     sum_band:buf :      0.00s CPU      0.00s WALL (      77 calls)
     sum_band:ini :      0.05s CPU      0.05s WALL (      77 calls)
     sum_band:cal :      0.00s CPU      0.00s WALL (      77 calls)
     sum_band:bec :      0.00s CPU      0.00s WALL (      77 calls)
     addusdens    :      3.43s CPU      6.07s WALL (      77 calls)
                                        0.00s GPU  (      77 calls)
     addusd:skk   :      0.03s CPU      0.03s WALL (     154 calls)
                                        0.00s GPU  (     154 calls)

     Called by *egterg:
     rdiaghg      :      0.04s CPU      0.04s WALL (     277 calls)
     regterg:over :      0.01s CPU      0.01s WALL (     207 calls)
     regterg:upda :      0.01s CPU      0.01s WALL (     207 calls)
     regterg:last :      0.01s CPU      0.02s WALL (     194 calls)
     h_psi        :      0.94s CPU      0.98s WALL (     285 calls)
     s_psi        :      0.01s CPU      0.01s WALL (     285 calls)
     g_psi        :      0.01s CPU      0.01s WALL (     207 calls)

     Called by h_psi:
     h_psi:calbec :      0.02s CPU      0.02s WALL (     285 calls)
     vloc_psi     :      0.90s CPU      0.94s WALL (     285 calls)
     add_vuspsi   :      0.01s CPU      0.01s WALL (     285 calls)

     General routines
     calbec       :      0.02s CPU      0.03s WALL (     394 calls)
     fft          :      2.74s CPU      3.66s WALL (     998 calls)
     ffts         :      0.46s CPU      0.54s WALL (     162 calls)
     fftw         :      0.85s CPU      0.88s WALL (    1194 calls)
     interpolate  :      0.57s CPU      0.63s WALL (      85 calls)

     Parallel routines

     PWSCF        :     15.93s CPU     24.22s WALL


   This run was terminated on:  10:19:46  24Sep2024            

=------------------------------------------------------------------------------=
   JOB DONE.
=------------------------------------------------------------------------------=
