
     Program PWSCF v.7.3.1 starts on 24Sep2024 at 10:19:48 

     This program is part of the open-source Quantum ESPRESSO suite
     for quantum simulation of materials; please cite
         "P. Giannozzi et al., J. Phys.:Condens. Matter 21 395502 (2009);
         "P. Giannozzi et al., J. Phys.:Condens. Matter 29 465901 (2017);
         "P. Giannozzi et al., J. Chem. Phys. 152 154105 (2020);
          URL http://www.quantum-espresso.org", 
     in publications or presentations arising from this work. More details at
     http://www.quantum-espresso.org/quote

     Parallel version (MPI & OpenMP), running on       2 processor cores
     Number of MPI processes:                 2
     Threads/MPI process:                     1

     MPI processes distributed on     1 nodes
     344678 MiB available memory on the printing compute node when the environment starts

     Reading input from scf.in

     Current dimensions of program PWSCF are:
     Max number of different atomic species (ntypx) = 10
     Max number of k-points (npk) =  40000
     Max angular momentum in pseudopotentials (lmaxx) =  4

     gamma-point specific algorithms are used

     R & G space division:  proc/nbgrp/npool/nimage =       2
     Subspace diagonalization in iterative solution of the eigenvalue problem:
     a serial algorithm will be used


     Parallelization info
     --------------------
     sticks:   dense  smooth     PW     G-vecs:    dense   smooth      PW
     Min        1819    1458    361                82426    59130    7383
     Max        1822    1459    364                82427    59135    7388
     Sum        3641    2917    725               164853   118265   14771

     Using Slab Decomposition



     bravais-lattice index     =            1
     lattice parameter (alat)  =      15.1178  a.u.
     unit-cell volume          =    3455.1465 (a.u.)^3
     number of atoms/cell      =            3
     number of atomic types    =            2
     number of electrons       =         8.00
     number of Kohn-Sham states=            8
     kinetic-energy cutoff     =      40.0000  Ry
     charge density cutoff     =     200.0000  Ry
     scf convergence threshold =      1.0E-08
     mixing beta               =       0.7000
     number of iterations used =            8  plain     mixing
     Exchange-correlation=  SLA  PW   PBX  PBC
                           (   1   4   3   4   0   0   0)

     celldm(1)=  15.117808  celldm(2)=   0.000000  celldm(3)=   0.000000
     celldm(4)=   0.000000  celldm(5)=   0.000000  celldm(6)=   0.000000

     crystal axes: (cart. coord. in units of alat)
               a(1) = (   1.000000   0.000000   0.000000 )  
               a(2) = (   0.000000   1.000000   0.000000 )  
               a(3) = (   0.000000   0.000000   1.000000 )  

     reciprocal axes: (cart. coord. in units 2 pi/alat)
               b(1) = (  1.000000  0.000000  0.000000 )  
               b(2) = (  0.000000  1.000000  0.000000 )  
               b(3) = (  0.000000  0.000000  1.000000 )  


     PseudoPot. # 1 for O  read from file:
     ./o_pbe_v1.2.uspp.F.UPF
     MD5 check sum: 734c27235a0248c51dbae37a1fbe46ec
     Pseudo is Ultrasoft + core correction, Zval =  6.0
     Generated by new atomic code, or converted to UPF format
     Using radial grid of  737 points,  5 beta functions with: 
                l(1) =   0
                l(2) =   0
                l(3) =   1
                l(4) =   1
                l(5) =   2
     Q(r) pseudized with  8 coefficients,  rinner =    0.900   0.900   0.900
                                                       0.900   0.900

     PseudoPot. # 2 for H  read from file:
     ./h_pbe_v1.4.uspp.F.UPF
     MD5 check sum: 761ae9a214b05c3daf00ab9f6b793d6f
     Pseudo is Ultrasoft, Zval =  1.0
     Generated by new atomic code, or converted to UPF format
     Using radial grid of  615 points,  2 beta functions with: 
                l(1) =   0
                l(2) =   0
     Q(r) pseudized with  8 coefficients,  rinner =    0.700

     atomic species   valence    mass     pseudopotential
     O                 6.00    16.00000     O ( 1.00)
     H                 1.00     1.00000     H ( 1.00)

      4 Sym. Ops. (no inversion) found


                                    s                        frac. trans.

      isym =  1     identity                                     

 cryst.   s( 1) = (     1          0          0      )
                  (     0          1          0      )
                  (     0          0          1      )

 cart.    s( 1) = (  1.0000000  0.0000000  0.0000000 )
                  (  0.0000000  1.0000000  0.0000000 )
                  (  0.0000000  0.0000000  1.0000000 )


      isym =  2     180 deg rotation - cart. axis [0,0,1]        

 cryst.   s( 2) = (    -1          0          0      )
                  (     0         -1          0      )
                  (     0          0          1      )

 cart.    s( 2) = ( -1.0000000  0.0000000  0.0000000 )
                  (  0.0000000 -1.0000000  0.0000000 )
                  (  0.0000000  0.0000000  1.0000000 )


      isym =  3     inv. 180 deg rotation - cart. axis [0,1,0]   

 cryst.   s( 3) = (     1          0          0      )
                  (     0         -1          0      )
                  (     0          0          1      )

 cart.    s( 3) = (  1.0000000  0.0000000  0.0000000 )
                  (  0.0000000 -1.0000000  0.0000000 )
                  (  0.0000000  0.0000000  1.0000000 )


      isym =  4     inv. 180 deg rotation - cart. axis [1,0,0]   

 cryst.   s( 4) = (    -1          0          0      )
                  (     0          1          0      )
                  (     0          0          1      )

 cart.    s( 4) = ( -1.0000000  0.0000000  0.0000000 )
                  (  0.0000000  1.0000000  0.0000000 )
                  (  0.0000000  0.0000000  1.0000000 )


     point group C_2v (mm2) 
     there are  4 classes
     the character table:

       E     C2    s_v   s_v' 
A_1    1.00  1.00  1.00  1.00
A_2    1.00  1.00 -1.00 -1.00
B_1    1.00 -1.00  1.00 -1.00
B_2    1.00 -1.00 -1.00  1.00

     the symmetry operations in each class and the name of the first element:

     E        1
          identity                                               
     C2       2
          180 deg rotation - cart. axis [0,0,1]                  
     s_v      4
          inv. 180 deg rotation - cart. axis [1,0,0]             
     s_v'     3
          inv. 180 deg rotation - cart. axis [0,1,0]             

   Cartesian axes

     site n.     atom                  positions (alat units)
         1        O      tau(   1) = (   0.5000000   0.5000000   0.5327682  )
         2        H      tau(   2) = (   0.4038633   0.5000000   0.6086159  )
         3        H      tau(   3) = (   0.5961368   0.5000000   0.6086159  )

   Crystallographic axes

     site n.     atom                  positions (cryst. coord.)
         1        O      tau(   1) = (  0.5000000  0.5000000  0.5327682  )
         2        H      tau(   2) = (  0.4038633  0.5000000  0.6086159  )
         3        H      tau(   3) = (  0.5961368  0.5000000  0.6086159  )

     number of k points=     1
                       cart. coord. in units 2pi/alat
        k(    1) = (   0.0000000   0.0000000   0.0000000), wk =   2.0000000

                       cryst. coord.
        k(    1) = (   0.0000000   0.0000000   0.0000000), wk =   2.0000000

     Dense  grid:    82427 G-vectors     FFT dimensions: (  72,  72,  72)

     Smooth grid:    59133 G-vectors     FFT dimensions: (  64,  64,  64)

     Dynamical RAM for                 wfc:       0.45 MB

     Dynamical RAM for     wfc (w. buffer):       0.45 MB

     Dynamical RAM for           str. fact:       1.26 MB

     Dynamical RAM for           local pot:       0.00 MB

     Dynamical RAM for          nlocal pot:       0.96 MB

     Dynamical RAM for                qrad:       1.62 MB

     Dynamical RAM for          rho,v,vnew:       6.16 MB

     Dynamical RAM for               rhoin:       2.05 MB

     Dynamical RAM for            rho*nmix:      10.06 MB

     Dynamical RAM for           G-vectors:       2.58 MB

     Dynamical RAM for          h,s,v(r/c):       0.01 MB

     Dynamical RAM for          <psi|beta>:       0.00 MB

     Dynamical RAM for                 psi:       0.90 MB

     Dynamical RAM for                hpsi:       0.90 MB

     Dynamical RAM for                spsi:       0.90 MB

     Dynamical RAM for      wfcinit/wfcrot:       0.90 MB

     Dynamical RAM for           addusdens:      67.92 MB

     Estimated static dynamical RAM per process >      24.09 MB

     Estimated max dynamical RAM per process >     102.07 MB

     Estimated total dynamical RAM >     204.14 MB

     Initial potential from superposition of free atoms

     starting charge       8.0000, renormalised to       8.0000

     negative rho (up, down):  1.374E-04 0.000E+00
     Starting wfcs are    6 randomized atomic wfcs +    2 random wfcs

     total cpu time spent up to now is        1.1 secs

     per-process dynamical memory:    52.0 Mb

     Self-consistent Calculation

     iteration #  1     ecut=    40.00 Ry     beta= 0.70
     Davidson diagonalization with overlap

---- Real-time Memory Report at c_bands before calling an iterative solver
           267 MiB given to the printing process from OS
            50 MiB allocation reported by mallinfo(arena+hblkhd)
        344411 MiB available memory on the node where the printing process lives
------------------
     ethr =  1.00E-02,  avg # of iterations =  6.0

     negative rho (up, down):  5.855E-04 0.000E+00

     total cpu time spent up to now is        1.4 secs

     total energy              =     -34.47381146 Ry
     estimated scf accuracy    <       0.45629488 Ry

     iteration #  2     ecut=    40.00 Ry     beta= 0.70
     Davidson diagonalization with overlap

---- Real-time Memory Report at c_bands before calling an iterative solver
           272 MiB given to the printing process from OS
            58 MiB allocation reported by mallinfo(arena+hblkhd)
        344198 MiB available memory on the node where the printing process lives
------------------
     ethr =  5.70E-03,  avg # of iterations =  2.0

     negative rho (up, down):  5.757E-04 0.000E+00

     total cpu time spent up to now is        1.6 secs

     total energy              =     -34.57859873 Ry
     estimated scf accuracy    <       0.47307686 Ry

     iteration #  3     ecut=    40.00 Ry     beta= 0.70
     Davidson diagonalization with overlap

---- Real-time Memory Report at c_bands before calling an iterative solver
           273 MiB given to the printing process from OS
            59 MiB allocation reported by mallinfo(arena+hblkhd)
        344251 MiB available memory on the node where the printing process lives
------------------
     ethr =  5.70E-03,  avg # of iterations =  2.0

     negative rho (up, down):  9.315E-04 0.000E+00

     total cpu time spent up to now is        1.9 secs

     total energy              =     -34.66631353 Ry
     estimated scf accuracy    <       0.00370054 Ry

     iteration #  4     ecut=    40.00 Ry     beta= 0.70
     Davidson diagonalization with overlap

---- Real-time Memory Report at c_bands before calling an iterative solver
           274 MiB given to the printing process from OS
            60 MiB allocation reported by mallinfo(arena+hblkhd)
        344226 MiB available memory on the node where the printing process lives
------------------
     ethr =  4.63E-05,  avg # of iterations =  9.0

     negative rho (up, down):  8.940E-04 0.000E+00

     total cpu time spent up to now is        2.2 secs

     total energy              =     -34.66707736 Ry
     estimated scf accuracy    <       0.00121669 Ry

     iteration #  5     ecut=    40.00 Ry     beta= 0.70
     Davidson diagonalization with overlap

---- Real-time Memory Report at c_bands before calling an iterative solver
           275 MiB given to the printing process from OS
            61 MiB allocation reported by mallinfo(arena+hblkhd)
        344231 MiB available memory on the node where the printing process lives
------------------
     ethr =  1.52E-05,  avg # of iterations =  8.0

     negative rho (up, down):  9.262E-04 0.000E+00

     total cpu time spent up to now is        2.5 secs

     total energy              =     -34.66703498 Ry
     estimated scf accuracy    <       0.00017800 Ry

     iteration #  6     ecut=    40.00 Ry     beta= 0.70
     Davidson diagonalization with overlap

---- Real-time Memory Report at c_bands before calling an iterative solver
           276 MiB given to the printing process from OS
            62 MiB allocation reported by mallinfo(arena+hblkhd)
        344589 MiB available memory on the node where the printing process lives
------------------
     ethr =  2.23E-06,  avg # of iterations =  2.0

     negative rho (up, down):  9.288E-04 0.000E+00

     total cpu time spent up to now is        2.7 secs

     total energy              =     -34.66709267 Ry
     estimated scf accuracy    <       0.00003874 Ry

     iteration #  7     ecut=    40.00 Ry     beta= 0.70
     Davidson diagonalization with overlap

---- Real-time Memory Report at c_bands before calling an iterative solver
           277 MiB given to the printing process from OS
            63 MiB allocation reported by mallinfo(arena+hblkhd)
        344537 MiB available memory on the node where the printing process lives
------------------
     ethr =  4.84E-07,  avg # of iterations =  2.0

     negative rho (up, down):  9.374E-04 0.000E+00

     total cpu time spent up to now is        3.0 secs

     total energy              =     -34.66709821 Ry
     estimated scf accuracy    <       0.00000048 Ry

     iteration #  8     ecut=    40.00 Ry     beta= 0.70
     Davidson diagonalization with overlap

---- Real-time Memory Report at c_bands before calling an iterative solver
           278 MiB given to the printing process from OS
            64 MiB allocation reported by mallinfo(arena+hblkhd)
        344263 MiB available memory on the node where the printing process lives
------------------
     ethr =  5.95E-09,  avg # of iterations =  2.0

     negative rho (up, down):  9.370E-04 0.000E+00

     total cpu time spent up to now is        3.3 secs

     End of self-consistent calculation

          k = 0.0000 0.0000 0.0000 (  7386 PWs)   bands (ev):

   -24.9341 -12.7244  -9.1155  -6.9866  -1.0865   0.9679   1.2164   1.6596

     occupation numbers 
     1.0000   1.0000   1.0000   1.0000   0.0000   0.0000   0.0000   0.0000

     highest occupied, lowest unoccupied level (ev):    -6.9866   -1.0865

!    total energy              =     -34.66709831 Ry
     estimated scf accuracy    <          4.0E-09 Ry

     The total energy is the sum of the following terms:
     one-electron contribution =     -58.45575149 Ry
     hartree contribution      =      30.76603996 Ry
     xc contribution           =      -8.67867452 Ry
     ewald contribution        =       1.70128774 Ry

     charge density inside the Wigner-Seitz cell:    8.00000000

     reference position (x0):         7.55890450    7.55890450    8.34095068 bohr

     Dipole moments (with respect to x0):
     Elect  -0.0000  -0.0000   0.7220 au (Ha),  -0.0001  -0.0000   1.8352 Debye
     Ionic   0.0000   0.0000   0.0000 au (Ha),   0.0000   0.0000   0.0000 Debye
     Total  -0.0000  -0.0000   0.7220 au (Ha),  -0.0001  -0.0000   1.8352 Debye

     Electrons quadrupole moment        -20.30028444 a.u. (Ha)
          Ions quadrupole moment          6.19682043 a.u. (Ha)
         Total quadrupole moment        -14.10346401 a.u. (Ha)

     *********    MAKOV-PAYNE CORRECTION    *********

     Makov-Payne correction with Madelung constant =   2.8373

     Makov-Payne correction     0.00000000 Ry =  0.000 eV (1st order, 1/a0)
                                0.00063204 Ry =  0.009 eV (2nd order, 1/a0^3)
                                0.00063204 Ry =  0.009 eV (total)

!    Total+Makov-Payne energy  =     -34.66646627 Ry
     Corrected vacuum level    =       0.23273555 eV

     convergence has been achieved in   8 iterations

     Writing all to output data dir ./h2o.save/ :
     XML data file, charge density, pseudopotentials, collected wavefunctions

     init_run     :      0.91s CPU      1.00s WALL (       1 calls)
     electrons    :      1.51s CPU      2.21s WALL (       1 calls)

     Called by init_run:
     wfcinit      :      0.02s CPU      0.02s WALL (       1 calls)
     wfcinit:atom :      0.00s CPU      0.00s WALL (       1 calls)
     wfcinit:wfcr :      0.01s CPU      0.02s WALL (       1 calls)
     potinit      :      0.30s CPU      0.33s WALL (       1 calls)
     hinit0       :      0.54s CPU      0.54s WALL (       1 calls)

     Called by electrons:
     c_bands      :      0.22s CPU      0.23s WALL (       8 calls)
     sum_band     :      0.44s CPU      0.71s WALL (       8 calls)
     v_of_rho     :      0.45s CPU      0.59s WALL (       9 calls)
     v_h          :      0.05s CPU      0.08s WALL (       9 calls)
     v_xc         :      0.40s CPU      0.52s WALL (       9 calls)
     newd         :      0.39s CPU      0.70s WALL (       9 calls)
     mix_rho      :      0.04s CPU      0.05s WALL (       8 calls)

     Called by c_bands:
     init_us_2    :      0.01s CPU      0.01s WALL (      17 calls)
     regterg      :      0.21s CPU      0.21s WALL (       8 calls)

     Called by sum_band:
     sum_band:wei :      0.00s CPU      0.00s WALL (       8 calls)
     sum_band:loo :      0.03s CPU      0.04s WALL (       8 calls)
     sum_band:buf :      0.00s CPU      0.00s WALL (       8 calls)
     sum_band:ini :      0.00s CPU      0.01s WALL (       8 calls)
     sum_band:cal :      0.00s CPU      0.00s WALL (       8 calls)
     sum_band:bec :      0.00s CPU      0.00s WALL (       8 calls)
     addusdens    :      0.36s CPU      0.63s WALL (       8 calls)
                                        0.00s GPU  (       8 calls)
     addusd:skk   :      0.00s CPU      0.00s WALL (      16 calls)
                                        0.00s GPU  (      16 calls)

     Called by *egterg:
     rdiaghg      :      0.01s CPU      0.01s WALL (      41 calls)
     regterg:over :      0.00s CPU      0.00s WALL (      33 calls)
     regterg:upda :      0.00s CPU      0.00s WALL (      33 calls)
     regterg:last :      0.00s CPU      0.00s WALL (      21 calls)
     h_psi        :      0.19s CPU      0.20s WALL (      42 calls)
     s_psi        :      0.00s CPU      0.00s WALL (      42 calls)
     g_psi        :      0.00s CPU      0.00s WALL (      33 calls)

     Called by h_psi:
     h_psi:calbec :      0.00s CPU      0.00s WALL (      42 calls)
     vloc_psi     :      0.19s CPU      0.19s WALL (      42 calls)
     add_vuspsi   :      0.00s CPU      0.00s WALL (      42 calls)

     General routines
     calbec       :      0.00s CPU      0.00s WALL (      50 calls)
     fft          :      0.72s CPU      0.81s WALL (      97 calls)
     ffts         :      0.26s CPU      0.27s WALL (      17 calls)
     fftw         :      0.18s CPU      0.18s WALL (     252 calls)
     interpolate  :      0.27s CPU      0.28s WALL (       9 calls)

     Parallel routines

     PWSCF        :      2.48s CPU      3.38s WALL


   This run was terminated on:  10:19:51  24Sep2024            

=------------------------------------------------------------------------------=
   JOB DONE.
=------------------------------------------------------------------------------=
