
     Program DYNMAT v.7.3.1 starts on 24Oct2024 at 13:59:17 

     This program is part of the open-source Quantum ESPRESSO suite
     for quantum simulation of materials; please cite
         "P. Giannozzi et al., J. Phys.:Condens. Matter 21 395502 (2009);
         "P. Giannozzi et al., J. Phys.:Condens. Matter 29 465901 (2017);
         "P. Giannozzi et al., J. Chem. Phys. 152 154105 (2020);
          URL http://www.quantum-espresso.org", 
     in publications or presentations arising from this work. More details at
     http://www.quantum-espresso.org/quote

     Parallel version (MPI & OpenMP), running on       2 processor cores
     Number of MPI processes:                 2
     Threads/MPI process:                     1

     MPI processes distributed on     1 nodes
     R & G space division:  proc/nbgrp/npool/nimage =       2
     449859 MiB available memory on the printing compute node when the environment starts


     Reading Dynamical Matrix from file dyn.G
     ...Force constants read
     ...epsilon and Z* read
     A direction for q was not specified:TO-LO splitting will be absent

     Polarizability (A^3 units)
     multiply by 0.270471 for Clausius-Mossotti correction
        25.218300   -0.000000   -0.000000
        -0.000000   25.218300    0.000000
        -0.000000    0.000000   25.218300

     IR activities are in (D/A)^2/amu units

# mode   [cm-1]    [THz]      IR
    1     -0.00   -0.0000    0.0000
    2     -0.00   -0.0000    0.0000
    3     -0.00   -0.0000    0.0000
    4    413.06   12.3834    5.0804
    5    413.06   12.3834    5.0804
    6    413.06   12.3834    5.0804

     DYNMAT       :      0.00s CPU      0.00s WALL


   This run was terminated on:  13:59:17  24Oct2024            

=------------------------------------------------------------------------------=
   JOB DONE.
=------------------------------------------------------------------------------=
