
     Program PWSCF v.7.3.1 starts on 24Oct2024 at 13:59:13 

     This program is part of the open-source Quantum ESPRESSO suite
     for quantum simulation of materials; please cite
         "P. Giannozzi et al., J. Phys.:Condens. Matter 21 395502 (2009);
         "P. Giannozzi et al., J. Phys.:Condens. Matter 29 465901 (2017);
         "P. Giannozzi et al., J. Chem. Phys. 152 154105 (2020);
          URL http://www.quantum-espresso.org", 
     in publications or presentations arising from this work. More details at
     http://www.quantum-espresso.org/quote

     Parallel version (MPI & OpenMP), running on       2 processor cores
     Number of MPI processes:                 2
     Threads/MPI process:                     1

     MPI processes distributed on     1 nodes
     449485 MiB available memory on the printing compute node when the environment starts

     Waiting for input...
     Reading input from standard input
     Message from routine read_cards :
     DEPRECATED: no units specified in ATOMIC_POSITIONS card
     Message from routine read_cards :
     ATOMIC_POSITIONS: units set to alat

     Current dimensions of program PWSCF are:
     Max number of different atomic species (ntypx) = 10
     Max number of k-points (npk) =  40000
     Max angular momentum in pseudopotentials (lmaxx) =  4

     R & G space division:  proc/nbgrp/npool/nimage =       2
     Subspace diagonalization in iterative solution of the eigenvalue problem:
     a serial algorithm will be used


     Parallelization info
     --------------------
     sticks:   dense  smooth     PW     G-vecs:    dense   smooth      PW
     Min         117     117     42                 1138     1138     264
     Max         118     118     43                 1139     1139     267
     Sum         235     235     85                 2277     2277     531

     Using Slab Decomposition



     bravais-lattice index     =            2
     lattice parameter (alat)  =      10.1870  a.u.
     unit-cell volume          =     264.2889 (a.u.)^3
     number of atoms/cell      =            2
     number of atomic types    =            2
     number of electrons       =         8.00
     number of Kohn-Sham states=            4
     kinetic-energy cutoff     =      16.0000  Ry
     charge density cutoff     =      64.0000  Ry
     scf convergence threshold =      1.0E-10
     mixing beta               =       0.7000
     number of iterations used =            8  plain     mixing
     Exchange-correlation=  SLA  PZ   NOGX NOGC
                           (   1   1   0   0   0   0   0)

     celldm(1)=  10.187000  celldm(2)=   0.000000  celldm(3)=   0.000000
     celldm(4)=   0.000000  celldm(5)=   0.000000  celldm(6)=   0.000000

     crystal axes: (cart. coord. in units of alat)
               a(1) = (  -0.500000   0.000000   0.500000 )  
               a(2) = (   0.000000   0.500000   0.500000 )  
               a(3) = (  -0.500000   0.500000   0.000000 )  

     reciprocal axes: (cart. coord. in units 2 pi/alat)
               b(1) = ( -1.000000 -1.000000  1.000000 )  
               b(2) = (  1.000000  1.000000  1.000000 )  
               b(3) = ( -1.000000  1.000000 -1.000000 )  


     PseudoPot. # 1 for Al read from file:
     ..//Al.pz-vbc.UPF
     MD5 check sum: 614279c88ff8d45c90147292d03ed420
     Pseudo is Norm-conserving, Zval =  3.0
     Generated by new atomic code, or converted to UPF format
     Using radial grid of  171 points,  2 beta functions with: 
                l(1) =   0
                l(2) =   1

     PseudoPot. # 2 for As read from file:
     ..//As.pz-bhs.UPF
     MD5 check sum: 451cd3365afcfc94d28b1934951c34a8
     Pseudo is Norm-conserving, Zval =  5.0
     Generated by new atomic code, or converted to UPF format
     Using radial grid of  525 points,  2 beta functions with: 
                l(1) =   0
                l(2) =   1

     atomic species   valence    mass     pseudopotential
     Al                3.00    26.98150     Al( 1.00)
     As                5.00    74.92160     As( 1.00)

     24 Sym. Ops. (no inversion) found



   Cartesian axes

     site n.     atom                  positions (alat units)
         1        Al     tau(   1) = (   0.0000000   0.0000000   0.0000000  )
         2        As     tau(   2) = (   0.2500000   0.2500000   0.2500000  )

     number of k points=    10
                       cart. coord. in units 2pi/alat
        k(    1) = (  -0.1250000   0.1250000   0.1250000), wk =   0.0625000
        k(    2) = (  -0.3750000   0.3750000  -0.1250000), wk =   0.1875000
        k(    3) = (   0.3750000  -0.3750000   0.6250000), wk =   0.1875000
        k(    4) = (   0.1250000  -0.1250000   0.3750000), wk =   0.1875000
        k(    5) = (  -0.1250000   0.6250000   0.1250000), wk =   0.1875000
        k(    6) = (   0.6250000  -0.1250000   0.8750000), wk =   0.3750000
        k(    7) = (   0.3750000   0.1250000   0.6250000), wk =   0.3750000
        k(    8) = (  -0.1250000  -0.8750000   0.1250000), wk =   0.1875000
        k(    9) = (  -0.3750000   0.3750000   0.3750000), wk =   0.0625000
        k(   10) = (   0.3750000  -0.3750000   1.1250000), wk =   0.1875000

     Dense  grid:     2277 G-vectors     FFT dimensions: (  20,  20,  20)

     Estimated max dynamical RAM per process >       1.05 MB

     Estimated total dynamical RAM >       2.09 MB

     Initial potential from superposition of free atoms

     starting charge       7.9977, renormalised to       8.0000
     Starting wfcs are    8 randomized atomic wfcs

     total cpu time spent up to now is        0.2 secs

     per-process dynamical memory:    17.7 Mb

     Self-consistent Calculation

     iteration #  1     ecut=    16.00 Ry     beta= 0.70
     Davidson diagonalization with overlap
     ethr =  1.00E-02,  avg # of iterations =  2.0

     Threshold (ethr) on eigenvalues was too large:
     Diagonalizing with lowered threshold

     Davidson diagonalization with overlap
     ethr =  8.64E-04,  avg # of iterations =  2.0

     total cpu time spent up to now is        0.3 secs

     total energy              =     -16.97483520 Ry
     estimated scf accuracy    <       0.07162147 Ry

     iteration #  2     ecut=    16.00 Ry     beta= 0.70
     Davidson diagonalization with overlap
     ethr =  8.95E-04,  avg # of iterations =  2.0

     total cpu time spent up to now is        0.3 secs

     total energy              =     -16.98549039 Ry
     estimated scf accuracy    <       0.00344962 Ry

     iteration #  3     ecut=    16.00 Ry     beta= 0.70
     Davidson diagonalization with overlap
     ethr =  4.31E-05,  avg # of iterations =  2.1

     total cpu time spent up to now is        0.3 secs

     total energy              =     -16.98611042 Ry
     estimated scf accuracy    <       0.00029700 Ry

     iteration #  4     ecut=    16.00 Ry     beta= 0.70
     Davidson diagonalization with overlap
     ethr =  3.71E-06,  avg # of iterations =  4.5

     total cpu time spent up to now is        0.3 secs

     total energy              =     -16.98631254 Ry
     estimated scf accuracy    <       0.00002618 Ry

     iteration #  5     ecut=    16.00 Ry     beta= 0.70
     Davidson diagonalization with overlap
     ethr =  3.27E-07,  avg # of iterations =  3.5

     total cpu time spent up to now is        0.3 secs

     total energy              =     -16.98631699 Ry
     estimated scf accuracy    <       0.00002561 Ry

     iteration #  6     ecut=    16.00 Ry     beta= 0.70
     Davidson diagonalization with overlap
     ethr =  3.20E-07,  avg # of iterations =  2.0

     total cpu time spent up to now is        0.3 secs

     total energy              =     -16.98632131 Ry
     estimated scf accuracy    <       0.00000001 Ry

     iteration #  7     ecut=    16.00 Ry     beta= 0.70
     Davidson diagonalization with overlap
     ethr =  1.37E-10,  avg # of iterations =  9.2

     total cpu time spent up to now is        0.3 secs

     total energy              =     -16.98632169 Ry
     estimated scf accuracy    <       0.00000012 Ry

     iteration #  8     ecut=    16.00 Ry     beta= 0.70
     Davidson diagonalization with overlap
     ethr =  1.37E-10,  avg # of iterations =  3.7

     total cpu time spent up to now is        0.4 secs

     total energy              =     -16.98632170 Ry
     estimated scf accuracy    <          3.2E-09 Ry

     iteration #  9     ecut=    16.00 Ry     beta= 0.70
     Davidson diagonalization with overlap
     ethr =  4.03E-11,  avg # of iterations =  1.8

     total cpu time spent up to now is        0.4 secs

     total energy              =     -16.98632170 Ry
     estimated scf accuracy    <          1.0E-09 Ry

     iteration # 10     ecut=    16.00 Ry     beta= 0.70
     Davidson diagonalization with overlap
     ethr =  1.27E-11,  avg # of iterations =  2.0

     total cpu time spent up to now is        0.4 secs

     total energy              =     -16.98632170 Ry
     estimated scf accuracy    <          2.9E-10 Ry

     iteration # 11     ecut=    16.00 Ry     beta= 0.70
     Davidson diagonalization with overlap
     ethr =  3.61E-12,  avg # of iterations =  2.3

     total cpu time spent up to now is        0.4 secs

     total energy              =     -16.98632170 Ry
     estimated scf accuracy    <          1.3E-10 Ry

     iteration # 12     ecut=    16.00 Ry     beta= 0.70
     Davidson diagonalization with overlap
     ethr =  1.64E-12,  avg # of iterations =  2.3

     total cpu time spent up to now is        0.4 secs

     End of self-consistent calculation

          k =-0.1250 0.1250 0.1250 (   295 PWs)   bands (ev):

    -6.4679   4.6122   5.8856   5.8856

          k =-0.3750 0.3750-0.1250 (   292 PWs)   bands (ev):

    -5.5921   1.7667   4.1809   5.5433

          k = 0.3750-0.3750 0.6250 (   281 PWs)   bands (ev):

    -4.8086   0.0561   4.1965   4.8522

          k = 0.1250-0.1250 0.3750 (   293 PWs)   bands (ev):

    -6.0030   3.0413   5.0548   5.1414

          k =-0.1250 0.6250 0.1250 (   289 PWs)   bands (ev):

    -5.1730   1.5592   3.8292   4.2352

          k = 0.6250-0.1250 0.8750 (   283 PWs)   bands (ev):

    -4.2824   0.5174   2.3347   3.5175

          k = 0.3750 0.1250 0.6250 (   288 PWs)   bands (ev):

    -4.8976   0.8470   3.1770   4.5238

          k =-0.1250-0.8750 0.1250 (   286 PWs)   bands (ev):

    -4.3313   0.3995   3.0312   3.7766

          k =-0.3750 0.3750 0.3750 (   281 PWs)   bands (ev):

    -5.2669   0.5956   5.2698   5.2698

          k = 0.3750-0.3750 1.1250 (   286 PWs)   bands (ev):

    -4.5188   0.4314   2.4521   4.5548

     highest occupied level (ev):     5.8856

!    total energy              =     -16.98632170 Ry
     estimated scf accuracy    <          3.7E-13 Ry

     The total energy is the sum of the following terms:
     one-electron contribution =       4.16628972 Ry
     hartree contribution      =       1.43090259 Ry
     xc contribution           =      -4.91949226 Ry
     ewald contribution        =     -17.66402176 Ry

     convergence has been achieved in  12 iterations

     Writing all to output data dir ./alas.save/ :
     XML data file, charge density, pseudopotentials, collected wavefunctions

     init_run     :      0.19s CPU      0.20s WALL (       1 calls)
     electrons    :      0.13s CPU      0.16s WALL (       1 calls)

     Called by init_run:
     wfcinit      :      0.03s CPU      0.03s WALL (       1 calls)
     potinit      :      0.00s CPU      0.00s WALL (       1 calls)
     hinit0       :      0.15s CPU      0.16s WALL (       1 calls)

     Called by electrons:
     c_bands      :      0.11s CPU      0.14s WALL (      13 calls)
     sum_band     :      0.01s CPU      0.01s WALL (      13 calls)
     v_of_rho     :      0.00s CPU      0.00s WALL (      13 calls)
     mix_rho      :      0.00s CPU      0.00s WALL (      13 calls)

     Called by c_bands:
     init_us_2    :      0.00s CPU      0.01s WALL (     270 calls)
     cegterg      :      0.11s CPU      0.13s WALL (     130 calls)

     Called by *egterg:
     cdiaghg      :      0.03s CPU      0.04s WALL (     514 calls)
     h_psi        :      0.09s CPU      0.10s WALL (     534 calls)
     g_psi        :      0.00s CPU      0.00s WALL (     394 calls)

     Called by h_psi:
     h_psi:calbec :      0.00s CPU      0.00s WALL (     534 calls)
     vloc_psi     :      0.08s CPU      0.09s WALL (     534 calls)
     add_vuspsi   :      0.00s CPU      0.00s WALL (     534 calls)

     General routines
     calbec       :      0.00s CPU      0.00s WALL (     534 calls)
     fft          :      0.15s CPU      0.15s WALL (      39 calls)
     ffts         :      0.00s CPU      0.00s WALL (      13 calls)
     fftw         :      0.07s CPU      0.08s WALL (    4180 calls)

     Parallel routines

     PWSCF        :      0.34s CPU      0.43s WALL


   This run was terminated on:  13:59:13  24Oct2024            

=------------------------------------------------------------------------------=
   JOB DONE.
=------------------------------------------------------------------------------=
