ANIMSTEPS    6
CRYSTAL
PRIMVEC
   -2.695364124    0.000000000    2.695364124
    0.000000000    2.695364124    2.695364124
   -2.695364124    2.695364124    0.000000000
PRIMCOORD    1
      2   1
   Al     0.00000   0.00000   0.00000  -0.00000  -0.07071  -0.00000
   As     1.34768   1.34768   1.34768  -0.00000  -0.07071  -0.00000
PRIMCOORD    2
      2   1
   Al     0.00000   0.00000   0.00000  -0.07071   0.00000  -0.00000
   As     1.34768   1.34768   1.34768  -0.07071  -0.00000  -0.00000
PRIMCOORD    3
      2   1
   Al     0.00000   0.00000   0.00000  -0.00000   0.00000  -0.07071
   As     1.34768   1.34768   1.34768  -0.00000  -0.00000  -0.07071
PRIMCOORD    4
      2   1
   Al     0.00000   0.00000   0.00000   0.00000   0.09408   0.00000
   As     1.34768   1.34768   1.34768   0.00000  -0.03388   0.00000
PRIMCOORD    5
      2   1
   Al     0.00000   0.00000   0.00000   0.00000   0.00000  -0.09408
   As     1.34768   1.34768   1.34768   0.00000   0.00000   0.03388
PRIMCOORD    6
      2   1
   Al     0.00000   0.00000   0.00000  -0.09408   0.00000   0.00000
   As     1.34768   1.34768   1.34768   0.03388   0.00000   0.00000
