[Molden Format]
[FREQ]
    0.00
    0.00
    0.00
  413.06
  413.06
  413.06
[FR-COORD]
   Al          0.00000        0.00000        0.00000
   As          2.54675        2.54675        2.54675
[FR-NORM-COORD]
 vibration     1
  -0.00000  -0.70711  -0.00000
  -0.00000  -0.70711  -0.00000
 vibration     2
  -0.70711   0.00000  -0.00000
  -0.70711  -0.00000  -0.00000
 vibration     3
  -0.00000   0.00000  -0.70711
  -0.00000  -0.00000  -0.70711
 vibration     4
   0.00000   0.94085   0.00000
   0.00000  -0.33883   0.00000
 vibration     5
   0.00000   0.00000  -0.94085
   0.00000   0.00000   0.33883
 vibration     6
  -0.94085   0.00000   0.00000
   0.33883   0.00000   0.00000
