
     Program PHONON v.7.3.1 starts on 15Oct2024 at 10:45:25 

     This program is part of the open-source Quantum ESPRESSO suite
     for quantum simulation of materials; please cite
         "P. Giannozzi et al., J. Phys.:Condens. Matter 21 395502 (2009);
         "P. Giannozzi et al., J. Phys.:Condens. Matter 29 465901 (2017);
         "P. Giannozzi et al., J. Chem. Phys. 152 154105 (2020);
          URL http://www.quantum-espresso.org", 
     in publications or presentations arising from this work. More details at
     http://www.quantum-espresso.org/quote

     Parallel version (MPI & OpenMP), running on       2 processor cores
     Number of MPI processes:                 2
     Threads/MPI process:                     1

     MPI processes distributed on     1 nodes
     510249 MiB available memory on the printing compute node when the environment starts

     Waiting for input...
     Reading input from standard input

     Reading xml data from directory:

     .//si.save/

     R & G space division:  proc/nbgrp/npool/nimage =       2
     Subspace diagonalization in iterative solution of the eigenvalue problem:
     a serial algorithm will be used


     IMPORTANT: XC functional enforced from input :
     Exchange-correlation= PZ
                           (   1   1   0   0   0   0   0)
     Any further DFT definition will be discarded
     Please, verify this is what you really want


     Parallelization info
     --------------------
     sticks:   dense  smooth     PW     G-vecs:    dense   smooth      PW
     Min         117     117     42                 1138     1138     264
     Max         118     118     43                 1139     1139     267
     Sum         235     235     85                 2277     2277     531

     Using Slab Decomposition

     Reading collected, re-writing distributed wavefunctions in .//


     Dynamical matrices for ( 4, 4, 4)  uniform grid of q-points
     (   8 q-points):
       N         xq(1)         xq(2)         xq(3) 
       1   0.000000000   0.000000000   0.000000000
       2  -0.250000000   0.250000000  -0.250000000
       3   0.500000000  -0.500000000   0.500000000
       4   0.000000000   0.500000000   0.000000000
       5   0.750000000  -0.250000000   0.750000000
       6   0.500000000   0.000000000   0.500000000
       7   0.000000000  -1.000000000   0.000000000
       8  -0.500000000  -1.000000000   0.000000000

     Number and degeneracy of irreps per q-point
       N         xq(1)         xq(2)         xq(3)   N irreps
       1   0.000000000   0.000000000   0.000000000       2
        3   3
       2  -0.250000000   0.250000000  -0.250000000       4
        1   1   2   2
       3   0.500000000  -0.500000000   0.500000000       4
        1   1   2   2
       4   0.000000000   0.500000000   0.000000000       4
        1   1   2   2
       5   0.750000000  -0.250000000   0.750000000       6
     No degeneracy
       6   0.500000000   0.000000000   0.500000000       6
     No degeneracy
       7   0.000000000  -1.000000000   0.000000000       3
        2   2   2
       8  -0.500000000  -1.000000000   0.000000000       3
        2   2   2

     Calculation of q =    0.0000000   0.0000000   0.0000000

     phonons at Gamma                                                           

     bravais-lattice index     =            2
     lattice parameter (alat)  =      10.1870  a.u.
     unit-cell volume          =     264.2889 (a.u.)^3
     number of atoms/cell      =            2
     number of atomic types    =            1
     kinetic-energy cut-off    =      16.0000  Ry
     charge density cut-off    =      64.0000  Ry
     convergence threshold     =      1.0E-14
     beta                      =       0.7000
     number of iterations used =            4
     Exchange-correlation= PZ
                           (   1   1   0   0   0   0   0)


     celldm(1)=   10.18700  celldm(2)=    0.00000  celldm(3)=    0.00000
     celldm(4)=    0.00000  celldm(5)=    0.00000  celldm(6)=    0.00000

     crystal axes: (cart. coord. in units of alat)
               a(1) = ( -0.5000  0.0000  0.5000 )  
               a(2) = (  0.0000  0.5000  0.5000 )  
               a(3) = ( -0.5000  0.5000  0.0000 )  

     reciprocal axes: (cart. coord. in units 2 pi/alat)
               b(1) = ( -1.0000 -1.0000  1.0000 )  
               b(2) = (  1.0000  1.0000  1.0000 )  
               b(3) = ( -1.0000  1.0000 -1.0000 )  


     Atoms inside the unit cell: 

     Cartesian axes

     site n.  atom      mass           positions (alat units)
        1  Si     28.0855   tau(    1) = (    0.00000    0.00000    0.00000  )
        2  Si     28.0855   tau(    2) = (    0.25000    0.25000    0.25000  )

     Computing dynamical matrix for 
                    q = (   0.0000000   0.0000000   0.0000000 )

     49 Sym.Ops. (with q -> -q+G )


     G cutoff =  168.2336  (   1139 G-vectors)     FFT grid: ( 20, 20, 20)
     number of k points=    10

     PseudoPot. # 1 for Si read from file:
     ..//Si.pz-rrkj.UPF
     MD5 check sum: 884b380b739b48e9cd334294cddc9a8d
     Pseudo is Norm-conserving, Zval =  4.0
     Generated using "atomic" code by A. Dal Corso (espresso distribution)
     Using radial grid of 1141 points,  2 beta functions with: 
                l(1) =   0
                l(2) =   1

     Mode symmetry, O_h (m-3m)  point group:


     Electric field:
     Dielectric constant
     Born effective charges in two ways 


     Atomic displacements:
     There are    2 irreducible representations

     Representation     1      3 modes -  To be done

     Representation     2      3 modes -  To be done



     Alpha used in Ewald sum =   0.7000
     PHONON       :      0.18s CPU      0.26s WALL


     Electric Fields Calculation

      iter #   1 total cpu time :     0.4 secs   av.it.:   5.6
      thresh= 1.000E-02 alpha_mix =  0.700 |ddv_scf|^2 =  9.055E-07

      iter #   2 total cpu time :     0.5 secs   av.it.:   9.5
      thresh= 9.516E-05 alpha_mix =  0.700 |ddv_scf|^2 =  3.515E-08

      iter #   3 total cpu time :     0.6 secs   av.it.:   9.4
      thresh= 1.875E-05 alpha_mix =  0.700 |ddv_scf|^2 =  3.470E-10

      iter #   4 total cpu time :     0.8 secs   av.it.:   9.5
      thresh= 1.863E-06 alpha_mix =  0.700 |ddv_scf|^2 =  1.483E-12

      iter #   5 total cpu time :     0.9 secs   av.it.:   9.0
      thresh= 1.218E-07 alpha_mix =  0.700 |ddv_scf|^2 =  2.043E-15

     End of electric fields calculation

          Dielectric constant in cartesian axis 

          (      13.998253693       0.000000000       0.000000000 )
          (      -0.000000000      13.998253693      -0.000000000 )
          (      -0.000000000      -0.000000000      13.998253693 )

          Effective charges (d Force / dE) in cartesian axis without acoustic sum rule applied (asr)

           atom    1  Si    Mean Z*:       -0.07441
      Ex  (       -0.07441        0.00000        0.00000 )
      Ey  (        0.00000       -0.07441        0.00000 )
      Ez  (       -0.00000        0.00000       -0.07441 )
           atom    2  Si    Mean Z*:       -0.07441
      Ex  (       -0.07441       -0.00000        0.00000 )
      Ey  (       -0.00000       -0.07441        0.00000 )
      Ez  (       -0.00000       -0.00000       -0.07441 )

          Effective charges Sum: Mean:       -0.14882
             -0.14882       -0.00000       -0.00000
             -0.00000       -0.14882        0.00000
              0.00000        0.00000       -0.14882

          Effective charges (d Force / dE) in cartesian axis with asr applied: 
           atom    1  Si    Mean Z*:        0.00000
      E*x (        0.00000        0.00000        0.00000 )
      E*y (        0.00000        0.00000        0.00000 )
      E*z (       -0.00000        0.00000        0.00000 )
           atom    2  Si    Mean Z*:       -0.00000
      E*x (       -0.00000       -0.00000       -0.00000 )
      E*y (       -0.00000       -0.00000       -0.00000 )
      E*z (        0.00000       -0.00000       -0.00000 )


     Representation #   1 modes #   1   2   3

     Self-consistent Calculation

      iter #   1 total cpu time :     1.0 secs   av.it.:   5.1
      thresh= 1.000E-02 alpha_mix =  0.700 |ddv_scf|^2 =  1.902E-07

      iter #   2 total cpu time :     1.1 secs   av.it.:   9.5
      thresh= 4.362E-05 alpha_mix =  0.700 |ddv_scf|^2 =  3.384E-09

      iter #   3 total cpu time :     1.4 secs   av.it.:   9.4
      thresh= 5.817E-06 alpha_mix =  0.700 |ddv_scf|^2 =  3.348E-11

      iter #   4 total cpu time :     1.5 secs   av.it.:   8.9
      thresh= 5.786E-07 alpha_mix =  0.700 |ddv_scf|^2 =  2.918E-14

      iter #   5 total cpu time :     1.6 secs   av.it.:   9.5
      thresh= 1.708E-08 alpha_mix =  0.700 |ddv_scf|^2 =  2.844E-16

     End of self-consistent calculation

     Convergence has been achieved 


     Representation #   2 modes #   4   5   6

     Self-consistent Calculation

      iter #   1 total cpu time :     1.7 secs   av.it.:   5.1
      thresh= 1.000E-02 alpha_mix =  0.700 |ddv_scf|^2 =  1.333E-07

      iter #   2 total cpu time :     1.8 secs   av.it.:   9.7
      thresh= 3.651E-05 alpha_mix =  0.700 |ddv_scf|^2 =  4.798E-09

      iter #   3 total cpu time :     2.1 secs   av.it.:   9.5
      thresh= 6.927E-06 alpha_mix =  0.700 |ddv_scf|^2 =  4.616E-11

      iter #   4 total cpu time :     2.4 secs   av.it.:   9.4
      thresh= 6.794E-07 alpha_mix =  0.700 |ddv_scf|^2 =  1.005E-13

      iter #   5 total cpu time :     2.5 secs   av.it.:   9.8
      thresh= 3.170E-08 alpha_mix =  0.700 |ddv_scf|^2 =  1.705E-15

     End of self-consistent calculation

     Convergence has been achieved 

     Number of q in the star =    1
     List of q in the star:
          1   0.000000000   0.000000000   0.000000000

          Dielectric constant in cartesian axis 

          (      13.998253693       0.000000000       0.000000000 )
          (      -0.000000000      13.998253693      -0.000000000 )
          (      -0.000000000      -0.000000000      13.998253693 )

          Effective charges (d Force / dE) in cartesian axis without acoustic sum rule applied (asr)

           atom    1  Si    Mean Z*:       -0.07441
      Ex  (       -0.07441        0.00000        0.00000 )
      Ey  (        0.00000       -0.07441        0.00000 )
      Ez  (       -0.00000        0.00000       -0.07441 )
           atom    2  Si    Mean Z*:       -0.07441
      Ex  (       -0.07441       -0.00000        0.00000 )
      Ey  (       -0.00000       -0.07441        0.00000 )
      Ez  (       -0.00000       -0.00000       -0.07441 )

          Effective charges Sum: Mean:       -0.14882
             -0.14882       -0.00000       -0.00000
             -0.00000       -0.14882        0.00000
              0.00000        0.00000       -0.14882

          Effective charges (d Force / dE) in cartesian axis with asr applied: 
           atom    1  Si    Mean Z*:        0.00000
      E*x (        0.00000        0.00000        0.00000 )
      E*y (        0.00000        0.00000        0.00000 )
      E*z (       -0.00000        0.00000        0.00000 )
           atom    2  Si    Mean Z*:       -0.00000
      E*x (       -0.00000       -0.00000       -0.00000 )
      E*y (       -0.00000       -0.00000       -0.00000 )
      E*z (        0.00000       -0.00000       -0.00000 )

          Effective charges (d P / du) in cartesian axis 

           atom      1Si    
      Px  (       -0.07445        0.00000        0.00000 )
      Py  (       -0.00000       -0.07445       -0.00000 )
      Pz  (        0.00000       -0.00000       -0.07445 )
           atom      2Si    
      Px  (       -0.07445        0.00000       -0.00000 )
      Py  (        0.00000       -0.07445        0.00000 )
      Pz  (       -0.00000        0.00000       -0.07445 )

     Diagonalizing the dynamical matrix

     q = (    0.000000000   0.000000000   0.000000000 ) 

 **************************************************************************
     freq (    1) =       0.088873 [THz] =       2.964471 [cm-1]
     freq (    2) =       0.088873 [THz] =       2.964471 [cm-1]
     freq (    3) =       0.088873 [THz] =       2.964471 [cm-1]
     freq (    4) =      15.549157 [THz] =     518.664042 [cm-1]
     freq (    5) =      15.549157 [THz] =     518.664042 [cm-1]
     freq (    6) =      15.549157 [THz] =     518.664042 [cm-1]
 **************************************************************************

     Mode symmetry, O_h (m-3m)  point group:

     freq (   1-   3) =          3.0  [cm-1]   --> T_1u G_15  G_4- I  
     freq (   4-   6) =        518.7  [cm-1]   --> T_2g G_25' G_5+ R  

     Calculation of q =   -0.2500000   0.2500000  -0.2500000

     Parallelization info
     --------------------
     sticks:   dense  smooth     PW     G-vecs:    dense   smooth      PW
     Min         117     117     42                 1138     1138     267
     Max         118     118     43                 1139     1139     270
     Sum         235     235     85                 2277     2277     537

     Using Slab Decomposition


     Title: 
     phonons at Gamma                                                           


     bravais-lattice index     =            2
     lattice parameter (alat)  =      10.1870  a.u.
     unit-cell volume          =     264.2889 (a.u.)^3
     number of atoms/cell      =            2
     number of atomic types    =            1
     number of electrons       =         8.00
     number of Kohn-Sham states=            4
     kinetic-energy cutoff     =      16.0000  Ry
     charge density cutoff     =      64.0000  Ry
     Exchange-correlation= PZ
                           (   1   1   0   0   0   0   0)

     celldm(1)=  10.187000  celldm(2)=   0.000000  celldm(3)=   0.000000
     celldm(4)=   0.000000  celldm(5)=   0.000000  celldm(6)=   0.000000

     crystal axes: (cart. coord. in units of alat)
               a(1) = (  -0.500000   0.000000   0.500000 )  
               a(2) = (   0.000000   0.500000   0.500000 )  
               a(3) = (  -0.500000   0.500000   0.000000 )  

     reciprocal axes: (cart. coord. in units 2 pi/alat)
               b(1) = ( -1.000000 -1.000000  1.000000 )  
               b(2) = (  1.000000  1.000000  1.000000 )  
               b(3) = ( -1.000000  1.000000 -1.000000 )  


     PseudoPot. # 1 for Si read from file:
     ..//Si.pz-rrkj.UPF
     MD5 check sum: 884b380b739b48e9cd334294cddc9a8d
     Pseudo is Norm-conserving, Zval =  4.0
     Generated using "atomic" code by A. Dal Corso (espresso distribution)
     Using radial grid of 1141 points,  2 beta functions with: 
                l(1) =   0
                l(2) =   1

     atomic species   valence    mass     pseudopotential
     Si                4.00    28.08550     Si( 1.00)

     48 Sym. Ops., with inversion, found



   Cartesian axes

     site n.     atom                  positions (alat units)
         1        Si     tau(   1) = (   0.0000000   0.0000000   0.0000000  )
         2        Si     tau(   2) = (   0.2500000   0.2500000   0.2500000  )

     number of k points=   120

     Number of k-points >= 100: set verbosity='high' to print them.

     Dense  grid:     2277 G-vectors     FFT dimensions: (  20,  20,  20)

     Estimated max dynamical RAM per process >       0.59 MB

     Estimated total dynamical RAM >       1.18 MB

     The potential is recalculated from file :
     .//_ph0/si.save/charge-density

     Starting wfcs are    8 atomic wfcs

     Band Structure Calculation
     Davidson diagonalization with overlap

     ethr =  1.25E-10,  avg # of iterations = 11.4

     total cpu time spent up to now is        0.5 secs

     End of band structure calculation

     Number of k-points >= 100: set verbosity='high' to print the bands.

     highest occupied level (ev):     5.9737

     Writing config to output data dir .//_ph0/si.save/ :
     XML data file

     phonons at Gamma                                                           

     bravais-lattice index     =            2
     lattice parameter (alat)  =      10.1870  a.u.
     unit-cell volume          =     264.2889 (a.u.)^3
     number of atoms/cell      =            2
     number of atomic types    =            1
     kinetic-energy cut-off    =      16.0000  Ry
     charge density cut-off    =      64.0000  Ry
     convergence threshold     =      1.0E-14
     beta                      =       0.7000
     number of iterations used =            4
     Exchange-correlation= PZ
                           (   1   1   0   0   0   0   0)


     celldm(1)=   10.18700  celldm(2)=    0.00000  celldm(3)=    0.00000
     celldm(4)=    0.00000  celldm(5)=    0.00000  celldm(6)=    0.00000

     crystal axes: (cart. coord. in units of alat)
               a(1) = ( -0.5000  0.0000  0.5000 )  
               a(2) = (  0.0000  0.5000  0.5000 )  
               a(3) = ( -0.5000  0.5000  0.0000 )  

     reciprocal axes: (cart. coord. in units 2 pi/alat)
               b(1) = ( -1.0000 -1.0000  1.0000 )  
               b(2) = (  1.0000  1.0000  1.0000 )  
               b(3) = ( -1.0000  1.0000 -1.0000 )  


     Atoms inside the unit cell: 

     Cartesian axes

     site n.  atom      mass           positions (alat units)
        1  Si     28.0855   tau(    1) = (    0.00000    0.00000    0.00000  )
        2  Si     28.0855   tau(    2) = (    0.25000    0.25000    0.25000  )

     Computing dynamical matrix for 
                    q = (  -0.2500000   0.2500000  -0.2500000 )

      6 Sym.Ops. (no q -> -q+G )


     G cutoff =  168.2336  (   1139 G-vectors)     FFT grid: ( 20, 20, 20)
     number of k points=   120

     PseudoPot. # 1 for Si read from file:
     ..//Si.pz-rrkj.UPF
     MD5 check sum: 884b380b739b48e9cd334294cddc9a8d
     Pseudo is Norm-conserving, Zval =  4.0
     Generated using "atomic" code by A. Dal Corso (espresso distribution)
     Using radial grid of 1141 points,  2 beta functions with: 
                l(1) =   0
                l(2) =   1

     Mode symmetry, C_3v (3m)   point group:


     Atomic displacements:
     There are    4 irreducible representations

     Representation     1      1 modes -  To be done

     Representation     2      1 modes -  To be done

     Representation     3      2 modes -  To be done

     Representation     4      2 modes -  To be done


     Message from routine init_vloc:
     Interpolation table for Vloc re-allocated

     Alpha used in Ewald sum =   0.7000
     PHONON       :      1.57s CPU      3.21s WALL



     Representation #   1 mode #   1

     Self-consistent Calculation

      iter #   1 total cpu time :     3.3 secs   av.it.:   5.6
      thresh= 1.000E-02 alpha_mix =  0.700 |ddv_scf|^2 =  2.690E-03

      iter #   2 total cpu time :     3.4 secs   av.it.:   7.0
      thresh= 5.186E-03 alpha_mix =  0.700 |ddv_scf|^2 =  4.199E-02

      iter #   3 total cpu time :     3.5 secs   av.it.:   6.1
      thresh= 1.000E-02 alpha_mix =  0.700 |ddv_scf|^2 =  1.731E-06

      iter #   4 total cpu time :     3.7 secs   av.it.:   7.5
      thresh= 1.316E-04 alpha_mix =  0.700 |ddv_scf|^2 =  1.675E-07

      iter #   5 total cpu time :     3.8 secs   av.it.:   7.1
      thresh= 4.092E-05 alpha_mix =  0.700 |ddv_scf|^2 =  2.970E-10

      iter #   6 total cpu time :     4.0 secs   av.it.:   7.6
      thresh= 1.723E-06 alpha_mix =  0.700 |ddv_scf|^2 =  6.287E-11

      iter #   7 total cpu time :     4.2 secs   av.it.:   7.0
      thresh= 7.929E-07 alpha_mix =  0.700 |ddv_scf|^2 =  2.687E-10

      iter #   8 total cpu time :     4.3 secs   av.it.:   6.1
      thresh= 1.639E-06 alpha_mix =  0.700 |ddv_scf|^2 =  3.850E-13

      iter #   9 total cpu time :     4.4 secs   av.it.:   7.0
      thresh= 6.205E-08 alpha_mix =  0.700 |ddv_scf|^2 =  2.536E-14

      iter #  10 total cpu time :     4.6 secs   av.it.:   7.0
      thresh= 1.593E-08 alpha_mix =  0.700 |ddv_scf|^2 =  4.951E-16

     End of self-consistent calculation

     Convergence has been achieved 


     Representation #   2 mode #   2

     Self-consistent Calculation

      iter #   1 total cpu time :     4.8 secs   av.it.:   5.6
      thresh= 1.000E-02 alpha_mix =  0.700 |ddv_scf|^2 =  2.690E-03

      iter #   2 total cpu time :     4.9 secs   av.it.:   7.0
      thresh= 5.186E-03 alpha_mix =  0.700 |ddv_scf|^2 =  4.199E-02

      iter #   3 total cpu time :     5.0 secs   av.it.:   6.1
      thresh= 1.000E-02 alpha_mix =  0.700 |ddv_scf|^2 =  1.731E-06

      iter #   4 total cpu time :     5.2 secs   av.it.:   7.5
      thresh= 1.316E-04 alpha_mix =  0.700 |ddv_scf|^2 =  1.675E-07

      iter #   5 total cpu time :     5.3 secs   av.it.:   7.1
      thresh= 4.092E-05 alpha_mix =  0.700 |ddv_scf|^2 =  2.970E-10

      iter #   6 total cpu time :     5.5 secs   av.it.:   7.6
      thresh= 1.723E-06 alpha_mix =  0.700 |ddv_scf|^2 =  6.287E-11

      iter #   7 total cpu time :     5.6 secs   av.it.:   7.0
      thresh= 7.929E-07 alpha_mix =  0.700 |ddv_scf|^2 =  2.687E-10

      iter #   8 total cpu time :     5.7 secs   av.it.:   6.1
      thresh= 1.639E-06 alpha_mix =  0.700 |ddv_scf|^2 =  3.850E-13

      iter #   9 total cpu time :     5.9 secs   av.it.:   7.0
      thresh= 6.205E-08 alpha_mix =  0.700 |ddv_scf|^2 =  2.536E-14

      iter #  10 total cpu time :     6.0 secs   av.it.:   7.0
      thresh= 1.593E-08 alpha_mix =  0.700 |ddv_scf|^2 =  4.951E-16

     End of self-consistent calculation

     Convergence has been achieved 


     Representation #   3 modes #   3   4

     Self-consistent Calculation

      iter #   1 total cpu time :     6.3 secs   av.it.:   5.0
      thresh= 1.000E-02 alpha_mix =  0.700 |ddv_scf|^2 =  5.120E-07

      iter #   2 total cpu time :     6.6 secs   av.it.:   9.0
      thresh= 7.156E-05 alpha_mix =  0.700 |ddv_scf|^2 =  2.834E-08

      iter #   3 total cpu time :     6.9 secs   av.it.:   8.8
      thresh= 1.683E-05 alpha_mix =  0.700 |ddv_scf|^2 =  1.313E-10

      iter #   4 total cpu time :     7.3 secs   av.it.:   8.7
      thresh= 1.146E-06 alpha_mix =  0.700 |ddv_scf|^2 =  8.208E-12

      iter #   5 total cpu time :     7.6 secs   av.it.:   8.4
      thresh= 2.865E-07 alpha_mix =  0.700 |ddv_scf|^2 =  1.492E-14

      iter #   6 total cpu time :     7.9 secs   av.it.:   9.0
      thresh= 1.222E-08 alpha_mix =  0.700 |ddv_scf|^2 =  2.471E-16

     End of self-consistent calculation

     Convergence has been achieved 


     Representation #   4 modes #   5   6

     Self-consistent Calculation

      iter #   1 total cpu time :     8.2 secs   av.it.:   5.1
      thresh= 1.000E-02 alpha_mix =  0.700 |ddv_scf|^2 =  5.120E-07

      iter #   2 total cpu time :     8.5 secs   av.it.:   9.3
      thresh= 7.155E-05 alpha_mix =  0.700 |ddv_scf|^2 =  2.830E-08

      iter #   3 total cpu time :     8.7 secs   av.it.:   9.0
      thresh= 1.682E-05 alpha_mix =  0.700 |ddv_scf|^2 =  1.316E-10

      iter #   4 total cpu time :     9.0 secs   av.it.:   8.9
      thresh= 1.147E-06 alpha_mix =  0.700 |ddv_scf|^2 =  8.214E-12

      iter #   5 total cpu time :     9.3 secs   av.it.:   8.7
      thresh= 2.866E-07 alpha_mix =  0.700 |ddv_scf|^2 =  1.491E-14

      iter #   6 total cpu time :     9.6 secs   av.it.:   9.2
      thresh= 1.221E-08 alpha_mix =  0.700 |ddv_scf|^2 =  2.480E-16

     End of self-consistent calculation

     Convergence has been achieved 

     Number of q in the star =    8
     List of q in the star:
          1  -0.250000000   0.250000000  -0.250000000
          2   0.250000000  -0.250000000  -0.250000000
          3   0.250000000  -0.250000000   0.250000000
          4   0.250000000   0.250000000   0.250000000
          5  -0.250000000  -0.250000000  -0.250000000
          6  -0.250000000  -0.250000000   0.250000000
          7  -0.250000000   0.250000000   0.250000000
          8   0.250000000   0.250000000  -0.250000000

     Diagonalizing the dynamical matrix

     q = (   -0.250000000   0.250000000  -0.250000000 ) 

 **************************************************************************
     freq (    1) =       2.835332 [THz] =      94.576495 [cm-1]
     freq (    2) =       2.835332 [THz] =      94.576495 [cm-1]
     freq (    3) =       6.985582 [THz] =     233.013930 [cm-1]
     freq (    4) =      14.685041 [THz] =     489.840229 [cm-1]
     freq (    5) =      15.015694 [THz] =     500.869634 [cm-1]
     freq (    6) =      15.015694 [THz] =     500.869634 [cm-1]
 **************************************************************************

     Mode symmetry, C_3v (3m)   point group:

     freq (   1-   2) =         94.6  [cm-1]   --> E    L_3           
     freq (   3-   3) =        233.0  [cm-1]   --> A_1  L_1           
     freq (   4-   4) =        489.8  [cm-1]   --> A_1  L_1           
     freq (   5-   6) =        500.9  [cm-1]   --> E    L_3           

     Calculation of q =    0.5000000  -0.5000000   0.5000000

     Parallelization info
     --------------------
     sticks:   dense  smooth     PW     G-vecs:    dense   smooth      PW
     Min         117     117     48                 1138     1138     322
     Max         118     118     49                 1139     1139     323
     Sum         235     235     97                 2277     2277     645

     Using Slab Decomposition


     Title: 
     phonons at Gamma                                                           


     bravais-lattice index     =            2
     lattice parameter (alat)  =      10.1870  a.u.
     unit-cell volume          =     264.2889 (a.u.)^3
     number of atoms/cell      =            2
     number of atomic types    =            1
     number of electrons       =         8.00
     number of Kohn-Sham states=            4
     kinetic-energy cutoff     =      16.0000  Ry
     charge density cutoff     =      64.0000  Ry
     Exchange-correlation= PZ
                           (   1   1   0   0   0   0   0)

     celldm(1)=  10.187000  celldm(2)=   0.000000  celldm(3)=   0.000000
     celldm(4)=   0.000000  celldm(5)=   0.000000  celldm(6)=   0.000000

     crystal axes: (cart. coord. in units of alat)
               a(1) = (  -0.500000   0.000000   0.500000 )  
               a(2) = (   0.000000   0.500000   0.500000 )  
               a(3) = (  -0.500000   0.500000   0.000000 )  

     reciprocal axes: (cart. coord. in units 2 pi/alat)
               b(1) = ( -1.000000 -1.000000  1.000000 )  
               b(2) = (  1.000000  1.000000  1.000000 )  
               b(3) = ( -1.000000  1.000000 -1.000000 )  


     PseudoPot. # 1 for Si read from file:
     ..//Si.pz-rrkj.UPF
     MD5 check sum: 884b380b739b48e9cd334294cddc9a8d
     Pseudo is Norm-conserving, Zval =  4.0
     Generated using "atomic" code by A. Dal Corso (espresso distribution)
     Using radial grid of 1141 points,  2 beta functions with: 
                l(1) =   0
                l(2) =   1

     atomic species   valence    mass     pseudopotential
     Si                4.00    28.08550     Si( 1.00)

     48 Sym. Ops., with inversion, found



   Cartesian axes

     site n.     atom                  positions (alat units)
         1        Si     tau(   1) = (   0.0000000   0.0000000   0.0000000  )
         2        Si     tau(   2) = (   0.2500000   0.2500000   0.2500000  )

     number of k points=    60
                       cart. coord. in units 2pi/alat
        k(    1) = (  -0.1250000   0.1250000   0.1250000), wk =   0.0468750
        k(    2) = (   0.3750000  -0.3750000   0.6250000), wk =   0.0000000
        k(    3) = (  -0.3750000   0.3750000  -0.1250000), wk =   0.0468750
        k(    4) = (   0.1250000  -0.1250000   0.3750000), wk =   0.0000000
        k(    5) = (   0.3750000  -0.3750000   0.6250000), wk =   0.0468750
        k(    6) = (   0.8750000  -0.8750000   1.1250000), wk =   0.0000000
        k(    7) = (   0.1250000  -0.1250000   0.3750000), wk =   0.0468750
        k(    8) = (   0.6250000  -0.6250000   0.8750000), wk =   0.0000000
        k(    9) = (  -0.1250000   0.6250000   0.1250000), wk =   0.0937500
        k(   10) = (   0.3750000   0.1250000   0.6250000), wk =   0.0000000
        k(   11) = (   0.6250000  -0.1250000   0.8750000), wk =   0.0937500
        k(   12) = (   1.1250000  -0.6250000   1.3750000), wk =   0.0000000
        k(   13) = (   0.3750000   0.1250000   0.6250000), wk =   0.0937500
        k(   14) = (   0.8750000  -0.3750000   1.1250000), wk =   0.0000000
        k(   15) = (  -0.1250000  -0.8750000   0.1250000), wk =   0.0937500
        k(   16) = (   0.3750000  -1.3750000   0.6250000), wk =   0.0000000
        k(   17) = (  -0.3750000   0.3750000   0.3750000), wk =   0.0468750
        k(   18) = (   0.1250000  -0.1250000   0.8750000), wk =   0.0000000
        k(   19) = (   0.3750000  -0.3750000   1.1250000), wk =   0.0468750
        k(   20) = (   0.8750000  -0.8750000   1.6250000), wk =   0.0000000
        k(   21) = (   0.1250000  -0.1250000   0.1250000), wk =   0.0156250
        k(   22) = (   0.6250000  -0.6250000   0.6250000), wk =   0.0000000
        k(   23) = (  -0.3750000  -0.3750000  -0.1250000), wk =   0.0937500
        k(   24) = (   0.1250000  -0.8750000   0.3750000), wk =   0.0000000
        k(   25) = (  -0.1250000  -0.3750000   0.3750000), wk =   0.0468750
        k(   26) = (   0.3750000  -0.8750000   0.8750000), wk =   0.0000000
        k(   27) = (   0.3750000   0.3750000   0.6250000), wk =   0.0937500
        k(   28) = (   0.8750000  -0.1250000   1.1250000), wk =   0.0000000
        k(   29) = (   0.6250000   0.3750000  -0.3750000), wk =   0.0468750
        k(   30) = (   1.1250000  -0.1250000   0.1250000), wk =   0.0000000
        k(   31) = (   0.1250000   0.1250000   0.3750000), wk =   0.0937500
        k(   32) = (   0.6250000  -0.3750000   0.8750000), wk =   0.0000000
        k(   33) = (   0.3750000   0.1250000  -0.1250000), wk =   0.0468750
        k(   34) = (   0.8750000  -0.3750000   0.3750000), wk =   0.0000000
        k(   35) = (  -0.1250000  -0.6250000  -0.1250000), wk =   0.0468750
        k(   36) = (   0.3750000  -1.1250000   0.3750000), wk =   0.0000000
        k(   37) = (   0.1250000  -0.6250000   0.1250000), wk =   0.0468750
        k(   38) = (   0.6250000  -1.1250000   0.6250000), wk =   0.0000000
        k(   39) = (   0.6250000   0.1250000   0.8750000), wk =   0.0937500
        k(   40) = (   1.1250000  -0.3750000   1.3750000), wk =   0.0000000
        k(   41) = (  -0.8750000   0.1250000   0.6250000), wk =   0.0937500
        k(   42) = (  -0.3750000  -0.3750000   1.1250000), wk =   0.0000000
        k(   43) = (   0.8750000   0.1250000  -0.6250000), wk =   0.0937500
        k(   44) = (   1.3750000  -0.3750000  -0.1250000), wk =   0.0000000
        k(   45) = (   0.3750000  -0.1250000   0.6250000), wk =   0.0937500
        k(   46) = (   0.8750000  -0.6250000   1.1250000), wk =   0.0000000
        k(   47) = (  -0.6250000  -0.1250000   0.3750000), wk =   0.0937500
        k(   48) = (  -0.1250000  -0.6250000   0.8750000), wk =   0.0000000
        k(   49) = (   0.6250000  -0.1250000  -0.3750000), wk =   0.0937500
        k(   50) = (   1.1250000  -0.6250000   0.1250000), wk =   0.0000000
        k(   51) = (  -0.1250000   0.8750000  -0.1250000), wk =   0.0468750
        k(   52) = (   0.3750000   0.3750000   0.3750000), wk =   0.0000000
        k(   53) = (   0.1250000   0.8750000   0.1250000), wk =   0.0468750
        k(   54) = (   0.6250000   0.3750000   0.6250000), wk =   0.0000000
        k(   55) = (   0.3750000  -0.3750000   0.3750000), wk =   0.0156250
        k(   56) = (   0.8750000  -0.8750000   0.8750000), wk =   0.0000000
        k(   57) = (   0.3750000   0.3750000   1.1250000), wk =   0.0937500
        k(   58) = (   0.8750000  -0.1250000   1.6250000), wk =   0.0000000
        k(   59) = (   1.1250000   0.3750000  -0.3750000), wk =   0.0468750
        k(   60) = (   1.6250000  -0.1250000   0.1250000), wk =   0.0000000

     Dense  grid:     2277 G-vectors     FFT dimensions: (  20,  20,  20)

     Estimated max dynamical RAM per process >       0.59 MB

     Estimated total dynamical RAM >       1.18 MB

     The potential is recalculated from file :
     .//_ph0/si.save/charge-density

     Starting wfcs are    8 atomic wfcs

     Band Structure Calculation
     Davidson diagonalization with overlap

     ethr =  1.25E-10,  avg # of iterations = 11.4

     total cpu time spent up to now is        0.7 secs

     End of band structure calculation

          k =-0.1250 0.1250 0.1250 (   295 PWs)   bands (ev):

    -5.6232   4.6588   5.9737   5.9737

          k = 0.3750-0.3750 0.6250 (   281 PWs)   bands (ev):

    -3.3375  -0.5695   3.9530   4.6830

          k =-0.3750 0.3750-0.1250 (   292 PWs)   bands (ev):

    -4.5459   1.6016   3.9081   5.4848

          k = 0.1250-0.1250 0.3750 (   293 PWs)   bands (ev):

    -5.0665   3.0252   4.9219   5.0065

          k = 0.3750-0.3750 0.6250 (   281 PWs)   bands (ev):

    -3.3375  -0.5695   3.9530   4.6830

          k = 0.8750-0.8750 1.1250 (   295 PWs)   bands (ev):

    -5.6232   4.6588   5.9737   5.9737

          k = 0.1250-0.1250 0.3750 (   293 PWs)   bands (ev):

    -5.0665   3.0252   4.9219   5.0065

          k = 0.6250-0.6250 0.8750 (   292 PWs)   bands (ev):

    -4.5459   1.6016   3.9081   5.4848

          k =-0.1250 0.6250 0.1250 (   289 PWs)   bands (ev):

    -3.9958   1.3190   3.5381   4.0176

          k = 0.3750 0.1250 0.6250 (   288 PWs)   bands (ev):

    -3.5559   0.3815   2.8752   4.2972

          k = 0.6250-0.1250 0.8750 (   283 PWs)   bands (ev):

    -2.2736  -0.7018   2.1036   3.2360

          k = 1.1250-0.6250 1.3750 (   292 PWs)   bands (ev):

    -4.5459   1.6016   3.9081   5.4848

          k = 0.3750 0.1250 0.6250 (   288 PWs)   bands (ev):

    -3.5559   0.3815   2.8752   4.2972

          k = 0.8750-0.3750 1.1250 (   289 PWs)   bands (ev):

    -3.9958   1.3190   3.5381   4.0176

          k =-0.1250-0.8750 0.1250 (   286 PWs)   bands (ev):

    -2.4647  -0.5910   2.7503   3.5364

          k = 0.3750-1.3750 0.6250 (   281 PWs)   bands (ev):

    -3.3375  -0.5695   3.9530   4.6830

          k =-0.3750 0.3750 0.3750 (   281 PWs)   bands (ev):

    -4.0837   0.2447   5.1668   5.1668

          k = 0.1250-0.1250 0.8750 (   286 PWs)   bands (ev):

    -2.4647  -0.5910   2.7503   3.5364

          k = 0.3750-0.3750 1.1250 (   286 PWs)   bands (ev):

    -2.8307  -0.4330   2.1812   4.3495

          k = 0.8750-0.8750 1.6250 (   289 PWs)   bands (ev):

    -3.9958   1.3190   3.5381   4.0176

          k = 0.1250-0.1250 0.1250 (   295 PWs)   bands (ev):

    -5.6232   4.6588   5.9737   5.9737

          k = 0.6250-0.6250 0.6250 (   281 PWs)   bands (ev):

    -4.0837   0.2447   5.1668   5.1668

          k =-0.3750-0.3750-0.1250 (   292 PWs)   bands (ev):

    -4.5459   1.6016   3.9081   5.4848

          k = 0.1250-0.8750 0.3750 (   283 PWs)   bands (ev):

    -2.2736  -0.7018   2.1036   3.2360

          k =-0.1250-0.3750 0.3750 (   292 PWs)   bands (ev):

    -4.5459   1.6016   3.9081   5.4848

          k = 0.3750-0.8750 0.8750 (   289 PWs)   bands (ev):

    -3.9958   1.3190   3.5381   4.0176

          k = 0.3750 0.3750 0.6250 (   281 PWs)   bands (ev):

    -3.3375  -0.5695   3.9530   4.6830

          k = 0.8750-0.1250 1.1250 (   286 PWs)   bands (ev):

    -2.4647  -0.5910   2.7503   3.5364

          k = 0.6250 0.3750-0.3750 (   281 PWs)   bands (ev):

    -3.3375  -0.5695   3.9530   4.6830

          k = 1.1250-0.1250 0.1250 (   286 PWs)   bands (ev):

    -2.4647  -0.5910   2.7503   3.5364

          k = 0.1250 0.1250 0.3750 (   293 PWs)   bands (ev):

    -5.0665   3.0252   4.9219   5.0065

          k = 0.6250-0.3750 0.8750 (   288 PWs)   bands (ev):

    -3.5559   0.3815   2.8752   4.2972

          k = 0.3750 0.1250-0.1250 (   293 PWs)   bands (ev):

    -5.0665   3.0252   4.9219   5.0065

          k = 0.8750-0.3750 0.3750 (   286 PWs)   bands (ev):

    -2.8307  -0.4330   2.1812   4.3495

          k =-0.1250-0.6250-0.1250 (   289 PWs)   bands (ev):

    -3.9958   1.3190   3.5381   4.0176

          k = 0.3750-1.1250 0.3750 (   286 PWs)   bands (ev):

    -2.8307  -0.4330   2.1812   4.3495

          k = 0.1250-0.6250 0.1250 (   289 PWs)   bands (ev):

    -3.9958   1.3190   3.5381   4.0176

          k = 0.6250-1.1250 0.6250 (   292 PWs)   bands (ev):

    -4.5459   1.6016   3.9081   5.4848

          k = 0.6250 0.1250 0.8750 (   283 PWs)   bands (ev):

    -2.2736  -0.7018   2.1036   3.2360

          k = 1.1250-0.3750 1.3750 (   288 PWs)   bands (ev):

    -3.5559   0.3815   2.8752   4.2972

          k =-0.8750 0.1250 0.6250 (   283 PWs)   bands (ev):

    -2.2736  -0.7018   2.1036   3.2360

          k =-0.3750-0.3750 1.1250 (   286 PWs)   bands (ev):

    -2.8307  -0.4330   2.1812   4.3495

          k = 0.8750 0.1250-0.6250 (   283 PWs)   bands (ev):

    -2.2736  -0.7018   2.1036   3.2360

          k = 1.3750-0.3750-0.1250 (   288 PWs)   bands (ev):

    -3.5559   0.3815   2.8752   4.2972

          k = 0.3750-0.1250 0.6250 (   288 PWs)   bands (ev):

    -3.5559   0.3815   2.8752   4.2972

          k = 0.8750-0.6250 1.1250 (   293 PWs)   bands (ev):

    -5.0665   3.0252   4.9219   5.0065

          k =-0.6250-0.1250 0.3750 (   288 PWs)   bands (ev):

    -3.5559   0.3815   2.8752   4.2972

          k =-0.1250-0.6250 0.8750 (   283 PWs)   bands (ev):

    -2.2736  -0.7018   2.1036   3.2360

          k = 0.6250-0.1250-0.3750 (   288 PWs)   bands (ev):

    -3.5559   0.3815   2.8752   4.2972

          k = 1.1250-0.6250 0.1250 (   283 PWs)   bands (ev):

    -2.2736  -0.7018   2.1036   3.2360

          k =-0.1250 0.8750-0.1250 (   286 PWs)   bands (ev):

    -2.4647  -0.5910   2.7503   3.5364

          k = 0.3750 0.3750 0.3750 (   281 PWs)   bands (ev):

    -4.0837   0.2447   5.1668   5.1668

          k = 0.1250 0.8750 0.1250 (   286 PWs)   bands (ev):

    -2.4647  -0.5910   2.7503   3.5364

          k = 0.6250 0.3750 0.6250 (   281 PWs)   bands (ev):

    -3.3375  -0.5695   3.9530   4.6830

          k = 0.3750-0.3750 0.3750 (   281 PWs)   bands (ev):

    -4.0837   0.2447   5.1668   5.1668

          k = 0.8750-0.8750 0.8750 (   295 PWs)   bands (ev):

    -5.6232   4.6588   5.9737   5.9737

          k = 0.3750 0.3750 1.1250 (   286 PWs)   bands (ev):

    -2.8307  -0.4330   2.1812   4.3495

          k = 0.8750-0.1250 1.6250 (   283 PWs)   bands (ev):

    -2.2736  -0.7018   2.1036   3.2360

          k = 1.1250 0.3750-0.3750 (   286 PWs)   bands (ev):

    -2.8307  -0.4330   2.1812   4.3495

          k = 1.6250-0.1250 0.1250 (   293 PWs)   bands (ev):

    -5.0665   3.0252   4.9219   5.0065

     highest occupied level (ev):     5.9737

     Writing config to output data dir .//_ph0/si.save/ :
     XML data file

     phonons at Gamma                                                           

     bravais-lattice index     =            2
     lattice parameter (alat)  =      10.1870  a.u.
     unit-cell volume          =     264.2889 (a.u.)^3
     number of atoms/cell      =            2
     number of atomic types    =            1
     kinetic-energy cut-off    =      16.0000  Ry
     charge density cut-off    =      64.0000  Ry
     convergence threshold     =      1.0E-14
     beta                      =       0.7000
     number of iterations used =            4
     Exchange-correlation= PZ
                           (   1   1   0   0   0   0   0)


     celldm(1)=   10.18700  celldm(2)=    0.00000  celldm(3)=    0.00000
     celldm(4)=    0.00000  celldm(5)=    0.00000  celldm(6)=    0.00000

     crystal axes: (cart. coord. in units of alat)
               a(1) = ( -0.5000  0.0000  0.5000 )  
               a(2) = (  0.0000  0.5000  0.5000 )  
               a(3) = ( -0.5000  0.5000  0.0000 )  

     reciprocal axes: (cart. coord. in units 2 pi/alat)
               b(1) = ( -1.0000 -1.0000  1.0000 )  
               b(2) = (  1.0000  1.0000  1.0000 )  
               b(3) = ( -1.0000  1.0000 -1.0000 )  


     Atoms inside the unit cell: 

     Cartesian axes

     site n.  atom      mass           positions (alat units)
        1  Si     28.0855   tau(    1) = (    0.00000    0.00000    0.00000  )
        2  Si     28.0855   tau(    2) = (    0.25000    0.25000    0.25000  )

     Computing dynamical matrix for 
                    q = (   0.5000000  -0.5000000   0.5000000 )

     13 Sym.Ops. (with q -> -q+G )


     G cutoff =  168.2336  (   1139 G-vectors)     FFT grid: ( 20, 20, 20)
     number of k points=    60

     PseudoPot. # 1 for Si read from file:
     ..//Si.pz-rrkj.UPF
     MD5 check sum: 884b380b739b48e9cd334294cddc9a8d
     Pseudo is Norm-conserving, Zval =  4.0
     Generated using "atomic" code by A. Dal Corso (espresso distribution)
     Using radial grid of 1141 points,  2 beta functions with: 
                l(1) =   0
                l(2) =   1


     Atomic displacements:
     There are    4 irreducible representations

     Representation     1      1 modes -  To be done

     Representation     2      1 modes -  To be done

     Representation     3      2 modes -  To be done

     Representation     4      2 modes -  To be done



     Alpha used in Ewald sum =   0.7000
     PHONON       :      5.39s CPU      9.97s WALL



     Representation #   1 mode #   1

     Self-consistent Calculation

      iter #   1 total cpu time :    10.0 secs   av.it.:   4.9
      thresh= 1.000E-02 alpha_mix =  0.700 |ddv_scf|^2 =  2.400E-05

      iter #   2 total cpu time :    10.1 secs   av.it.:   7.7
      thresh= 4.898E-04 alpha_mix =  0.700 |ddv_scf|^2 =  2.026E-05

      iter #   3 total cpu time :    10.2 secs   av.it.:   7.1
      thresh= 4.502E-04 alpha_mix =  0.700 |ddv_scf|^2 =  1.726E-09

      iter #   4 total cpu time :    10.3 secs   av.it.:   7.4
      thresh= 4.154E-06 alpha_mix =  0.700 |ddv_scf|^2 =  3.600E-11

      iter #   5 total cpu time :    10.4 secs   av.it.:   7.1
      thresh= 6.000E-07 alpha_mix =  0.700 |ddv_scf|^2 =  1.529E-13

      iter #   6 total cpu time :    10.5 secs   av.it.:   7.3
      thresh= 3.911E-08 alpha_mix =  0.700 |ddv_scf|^2 =  3.751E-15

     End of self-consistent calculation

     Convergence has been achieved 


     Representation #   2 mode #   2

     Self-consistent Calculation

      iter #   1 total cpu time :    10.6 secs   av.it.:   5.6
      thresh= 1.000E-02 alpha_mix =  0.700 |ddv_scf|^2 =  3.988E-04

      iter #   2 total cpu time :    10.7 secs   av.it.:   7.8
      thresh= 1.997E-03 alpha_mix =  0.700 |ddv_scf|^2 =  1.292E-03

      iter #   3 total cpu time :    10.8 secs   av.it.:   6.9
      thresh= 3.595E-03 alpha_mix =  0.700 |ddv_scf|^2 =  3.488E-08

      iter #   4 total cpu time :    10.9 secs   av.it.:   7.8
      thresh= 1.868E-05 alpha_mix =  0.700 |ddv_scf|^2 =  8.604E-10

      iter #   5 total cpu time :    11.0 secs   av.it.:   8.0
      thresh= 2.933E-06 alpha_mix =  0.700 |ddv_scf|^2 =  6.894E-11

      iter #   6 total cpu time :    11.1 secs   av.it.:   7.3
      thresh= 8.303E-07 alpha_mix =  0.700 |ddv_scf|^2 =  6.338E-14

      iter #   7 total cpu time :    11.2 secs   av.it.:   7.5
      thresh= 2.518E-08 alpha_mix =  0.700 |ddv_scf|^2 =  2.857E-15

     End of self-consistent calculation

     Convergence has been achieved 


     Representation #   3 modes #   3   4

     Self-consistent Calculation

      iter #   1 total cpu time :    11.4 secs   av.it.:   5.1
      thresh= 1.000E-02 alpha_mix =  0.700 |ddv_scf|^2 =  1.150E-06

      iter #   2 total cpu time :    11.6 secs   av.it.:   9.2
      thresh= 1.072E-04 alpha_mix =  0.700 |ddv_scf|^2 =  9.657E-08

      iter #   3 total cpu time :    11.8 secs   av.it.:   8.9
      thresh= 3.108E-05 alpha_mix =  0.700 |ddv_scf|^2 =  1.132E-10

      iter #   4 total cpu time :    12.3 secs   av.it.:   8.5
      thresh= 1.064E-06 alpha_mix =  0.700 |ddv_scf|^2 =  3.863E-13

      iter #   5 total cpu time :    12.5 secs   av.it.:   8.8
      thresh= 6.215E-08 alpha_mix =  0.700 |ddv_scf|^2 =  2.072E-15

     End of self-consistent calculation

     Convergence has been achieved 


     Representation #   4 modes #   5   6

     Self-consistent Calculation

      iter #   1 total cpu time :    12.7 secs   av.it.:   4.8
      thresh= 1.000E-02 alpha_mix =  0.700 |ddv_scf|^2 =  1.310E-07

      iter #   2 total cpu time :    12.8 secs   av.it.:   9.1
      thresh= 3.620E-05 alpha_mix =  0.700 |ddv_scf|^2 =  2.442E-09

      iter #   3 total cpu time :    13.0 secs   av.it.:   8.9
      thresh= 4.941E-06 alpha_mix =  0.700 |ddv_scf|^2 =  8.227E-11

      iter #   4 total cpu time :    13.2 secs   av.it.:   8.6
      thresh= 9.070E-07 alpha_mix =  0.700 |ddv_scf|^2 =  1.267E-13

      iter #   5 total cpu time :    13.4 secs   av.it.:   9.1
      thresh= 3.559E-08 alpha_mix =  0.700 |ddv_scf|^2 =  1.879E-15

     End of self-consistent calculation

     Convergence has been achieved 

     Number of q in the star =    4
     List of q in the star:
          1   0.500000000  -0.500000000   0.500000000
          2   0.500000000   0.500000000   0.500000000
          3  -0.500000000   0.500000000   0.500000000
          4   0.500000000   0.500000000  -0.500000000

     Diagonalizing the dynamical matrix

     q = (    0.500000000  -0.500000000   0.500000000 ) 

 **************************************************************************
     freq (    1) =       3.258264 [THz] =     108.684004 [cm-1]
     freq (    2) =       3.258264 [THz] =     108.684004 [cm-1]
     freq (    3) =      11.309382 [THz] =     377.240389 [cm-1]
     freq (    4) =      12.550859 [THz] =     418.651600 [cm-1]
     freq (    5) =      14.842562 [THz] =     495.094584 [cm-1]
     freq (    6) =      14.842562 [THz] =     495.094584 [cm-1]
 **************************************************************************

     Calculation of q =    0.0000000   0.5000000   0.0000000

     Parallelization info
     --------------------
     sticks:   dense  smooth     PW     G-vecs:    dense   smooth      PW
     Min         117     117     45                 1138     1138     280
     Max         118     118     46                 1139     1139     281
     Sum         235     235     91                 2277     2277     561

     Using Slab Decomposition


     Title: 
     phonons at Gamma                                                           


     bravais-lattice index     =            2
     lattice parameter (alat)  =      10.1870  a.u.
     unit-cell volume          =     264.2889 (a.u.)^3
     number of atoms/cell      =            2
     number of atomic types    =            1
     number of electrons       =         8.00
     number of Kohn-Sham states=            4
     kinetic-energy cutoff     =      16.0000  Ry
     charge density cutoff     =      64.0000  Ry
     Exchange-correlation= PZ
                           (   1   1   0   0   0   0   0)

     celldm(1)=  10.187000  celldm(2)=   0.000000  celldm(3)=   0.000000
     celldm(4)=   0.000000  celldm(5)=   0.000000  celldm(6)=   0.000000

     crystal axes: (cart. coord. in units of alat)
               a(1) = (  -0.500000   0.000000   0.500000 )  
               a(2) = (   0.000000   0.500000   0.500000 )  
               a(3) = (  -0.500000   0.500000   0.000000 )  

     reciprocal axes: (cart. coord. in units 2 pi/alat)
               b(1) = ( -1.000000 -1.000000  1.000000 )  
               b(2) = (  1.000000  1.000000  1.000000 )  
               b(3) = ( -1.000000  1.000000 -1.000000 )  


     PseudoPot. # 1 for Si read from file:
     ..//Si.pz-rrkj.UPF
     MD5 check sum: 884b380b739b48e9cd334294cddc9a8d
     Pseudo is Norm-conserving, Zval =  4.0
     Generated using "atomic" code by A. Dal Corso (espresso distribution)
     Using radial grid of 1141 points,  2 beta functions with: 
                l(1) =   0
                l(2) =   1

     atomic species   valence    mass     pseudopotential
     Si                4.00    28.08550     Si( 1.00)

     48 Sym. Ops., with inversion, found



   Cartesian axes

     site n.     atom                  positions (alat units)
         1        Si     tau(   1) = (   0.0000000   0.0000000   0.0000000  )
         2        Si     tau(   2) = (   0.2500000   0.2500000   0.2500000  )

     number of k points=    80
                       cart. coord. in units 2pi/alat
        k(    1) = (  -0.1250000   0.1250000   0.1250000), wk =   0.0312500
        k(    2) = (  -0.1250000   0.6250000   0.1250000), wk =   0.0000000
        k(    3) = (  -0.3750000   0.3750000  -0.1250000), wk =   0.0625000
        k(    4) = (  -0.3750000   0.8750000  -0.1250000), wk =   0.0000000
        k(    5) = (   0.3750000  -0.3750000   0.6250000), wk =   0.0625000
        k(    6) = (   0.3750000   0.1250000   0.6250000), wk =   0.0000000
        k(    7) = (   0.1250000  -0.1250000   0.3750000), wk =   0.0625000
        k(    8) = (   0.1250000   0.3750000   0.3750000), wk =   0.0000000
        k(    9) = (  -0.1250000   0.6250000   0.1250000), wk =   0.0312500
        k(   10) = (  -0.1250000   1.1250000   0.1250000), wk =   0.0000000
        k(   11) = (   0.6250000  -0.1250000   0.8750000), wk =   0.0625000
        k(   12) = (   0.6250000   0.3750000   0.8750000), wk =   0.0000000
        k(   13) = (   0.3750000   0.1250000   0.6250000), wk =   0.0625000
        k(   14) = (   0.3750000   0.6250000   0.6250000), wk =   0.0000000
        k(   15) = (  -0.1250000  -0.8750000   0.1250000), wk =   0.0312500
        k(   16) = (  -0.1250000  -0.3750000   0.1250000), wk =   0.0000000
        k(   17) = (  -0.3750000   0.3750000   0.3750000), wk =   0.0312500
        k(   18) = (  -0.3750000   0.8750000   0.3750000), wk =   0.0000000
        k(   19) = (   0.3750000  -0.3750000   1.1250000), wk =   0.0625000
        k(   20) = (   0.3750000   0.1250000   1.1250000), wk =   0.0000000
        k(   21) = (  -0.1250000  -0.1250000   0.1250000), wk =   0.0312500
        k(   22) = (  -0.1250000   0.3750000   0.1250000), wk =   0.0000000
        k(   23) = (   0.1250000  -0.3750000   0.3750000), wk =   0.0625000
        k(   24) = (   0.1250000   0.1250000   0.3750000), wk =   0.0000000
        k(   25) = (   0.3750000  -0.1250000   0.3750000), wk =   0.0312500
        k(   26) = (   0.3750000   0.3750000   0.3750000), wk =   0.0000000
        k(   27) = (   0.3750000   0.1250000   0.3750000), wk =   0.0312500
        k(   28) = (   0.3750000   0.6250000   0.3750000), wk =   0.0000000
        k(   29) = (  -0.6250000   0.3750000  -0.3750000), wk =   0.0625000
        k(   30) = (  -0.6250000   0.8750000  -0.3750000), wk =   0.0000000
        k(   31) = (  -0.3750000   0.6250000  -0.3750000), wk =   0.0312500
        k(   32) = (  -0.3750000   1.1250000  -0.3750000), wk =   0.0000000
        k(   33) = (  -0.3750000  -0.6250000  -0.3750000), wk =   0.0312500
        k(   34) = (  -0.3750000  -0.1250000  -0.3750000), wk =   0.0000000
        k(   35) = (  -0.3750000   0.1250000  -0.1250000), wk =   0.0625000
        k(   36) = (  -0.3750000   0.6250000  -0.1250000), wk =   0.0000000
        k(   37) = (  -0.1250000   0.3750000  -0.1250000), wk =   0.0312500
        k(   38) = (  -0.1250000   0.8750000  -0.1250000), wk =   0.0000000
        k(   39) = (  -0.1250000  -0.3750000  -0.1250000), wk =   0.0312500
        k(   40) = (  -0.1250000   0.1250000  -0.1250000), wk =   0.0000000
        k(   41) = (  -0.1250000  -0.6250000   0.1250000), wk =   0.0312500
        k(   42) = (  -0.1250000  -0.1250000   0.1250000), wk =   0.0000000
        k(   43) = (   0.6250000  -0.1250000  -0.1250000), wk =   0.0625000
        k(   44) = (   0.6250000   0.3750000  -0.1250000), wk =   0.0000000
        k(   45) = (   0.6250000   0.1250000   0.1250000), wk =   0.0625000
        k(   46) = (   0.6250000   0.6250000   0.1250000), wk =   0.0000000
        k(   47) = (  -0.8750000   0.1250000  -0.6250000), wk =   0.0625000
        k(   48) = (  -0.8750000   0.6250000  -0.6250000), wk =   0.0000000
        k(   49) = (  -0.1250000   0.6250000  -0.8750000), wk =   0.0625000
        k(   50) = (  -0.1250000   1.1250000  -0.8750000), wk =   0.0000000
        k(   51) = (  -0.1250000   0.8750000  -0.6250000), wk =   0.0625000
        k(   52) = (  -0.1250000   1.3750000  -0.6250000), wk =   0.0000000
        k(   53) = (  -0.1250000  -0.8750000  -0.6250000), wk =   0.0625000
        k(   54) = (  -0.1250000  -0.3750000  -0.6250000), wk =   0.0000000
        k(   55) = (   0.8750000  -0.6250000   0.1250000), wk =   0.0625000
        k(   56) = (   0.8750000  -0.1250000   0.1250000), wk =   0.0000000
        k(   57) = (  -0.6250000  -0.1250000  -0.3750000), wk =   0.0625000
        k(   58) = (  -0.6250000   0.3750000  -0.3750000), wk =   0.0000000
        k(   59) = (   0.1250000   0.3750000  -0.6250000), wk =   0.0625000
        k(   60) = (   0.1250000   0.8750000  -0.6250000), wk =   0.0000000
        k(   61) = (   0.1250000   0.6250000  -0.3750000), wk =   0.0625000
        k(   62) = (   0.1250000   1.1250000  -0.3750000), wk =   0.0000000
        k(   63) = (   0.1250000  -0.6250000  -0.3750000), wk =   0.0625000
        k(   64) = (   0.1250000  -0.1250000  -0.3750000), wk =   0.0000000
        k(   65) = (   0.6250000  -0.3750000  -0.1250000), wk =   0.0625000
        k(   66) = (   0.6250000   0.1250000  -0.1250000), wk =   0.0000000
        k(   67) = (  -0.1250000   0.8750000   0.1250000), wk =   0.0312500
        k(   68) = (  -0.1250000   1.3750000   0.1250000), wk =   0.0000000
        k(   69) = (  -0.8750000  -0.1250000  -0.1250000), wk =   0.0625000
        k(   70) = (  -0.8750000   0.3750000  -0.1250000), wk =   0.0000000
        k(   71) = (  -0.8750000   0.1250000   0.1250000), wk =   0.0625000
        k(   72) = (  -0.8750000   0.6250000   0.1250000), wk =   0.0000000
        k(   73) = (  -0.3750000  -0.3750000   0.3750000), wk =   0.0312500
        k(   74) = (  -0.3750000   0.1250000   0.3750000), wk =   0.0000000
        k(   75) = (  -1.1250000   0.3750000  -0.3750000), wk =   0.0625000
        k(   76) = (  -1.1250000   0.8750000  -0.3750000), wk =   0.0000000
        k(   77) = (  -0.3750000   1.1250000  -0.3750000), wk =   0.0312500
        k(   78) = (  -0.3750000   1.6250000  -0.3750000), wk =   0.0000000
        k(   79) = (  -0.3750000  -1.1250000  -0.3750000), wk =   0.0312500
        k(   80) = (  -0.3750000  -0.6250000  -0.3750000), wk =   0.0000000

     Dense  grid:     2277 G-vectors     FFT dimensions: (  20,  20,  20)

     Estimated max dynamical RAM per process >       0.59 MB

     Estimated total dynamical RAM >       1.18 MB

     The potential is recalculated from file :
     .//_ph0/si.save/charge-density

     Starting wfcs are    8 atomic wfcs

     Band Structure Calculation
     Davidson diagonalization with overlap

     ethr =  1.25E-10,  avg # of iterations = 11.4

     total cpu time spent up to now is        1.1 secs

     End of band structure calculation

          k =-0.1250 0.1250 0.1250 (   295 PWs)   bands (ev):

    -5.6232   4.6588   5.9737   5.9737

          k =-0.1250 0.6250 0.1250 (   289 PWs)   bands (ev):

    -3.9958   1.3190   3.5381   4.0176

          k =-0.3750 0.3750-0.1250 (   292 PWs)   bands (ev):

    -4.5459   1.6016   3.9081   5.4848

          k =-0.3750 0.8750-0.1250 (   283 PWs)   bands (ev):

    -2.2736  -0.7018   2.1036   3.2360

          k = 0.3750-0.3750 0.6250 (   281 PWs)   bands (ev):

    -3.3375  -0.5695   3.9530   4.6830

          k = 0.3750 0.1250 0.6250 (   288 PWs)   bands (ev):

    -3.5559   0.3815   2.8752   4.2972

          k = 0.1250-0.1250 0.3750 (   293 PWs)   bands (ev):

    -5.0665   3.0252   4.9219   5.0065

          k = 0.1250 0.3750 0.3750 (   292 PWs)   bands (ev):

    -4.5459   1.6016   3.9081   5.4848

          k =-0.1250 0.6250 0.1250 (   289 PWs)   bands (ev):

    -3.9958   1.3190   3.5381   4.0176

          k =-0.1250 1.1250 0.1250 (   286 PWs)   bands (ev):

    -2.4647  -0.5910   2.7503   3.5364

          k = 0.6250-0.1250 0.8750 (   283 PWs)   bands (ev):

    -2.2736  -0.7018   2.1036   3.2360

          k = 0.6250 0.3750 0.8750 (   288 PWs)   bands (ev):

    -3.5559   0.3815   2.8752   4.2972

          k = 0.3750 0.1250 0.6250 (   288 PWs)   bands (ev):

    -3.5559   0.3815   2.8752   4.2972

          k = 0.3750 0.6250 0.6250 (   281 PWs)   bands (ev):

    -3.3375  -0.5695   3.9530   4.6830

          k =-0.1250-0.8750 0.1250 (   286 PWs)   bands (ev):

    -2.4647  -0.5910   2.7503   3.5364

          k =-0.1250-0.3750 0.1250 (   293 PWs)   bands (ev):

    -5.0665   3.0252   4.9219   5.0065

          k =-0.3750 0.3750 0.3750 (   281 PWs)   bands (ev):

    -4.0837   0.2447   5.1668   5.1668

          k =-0.3750 0.8750 0.3750 (   286 PWs)   bands (ev):

    -2.8307  -0.4330   2.1812   4.3495

          k = 0.3750-0.3750 1.1250 (   286 PWs)   bands (ev):

    -2.8307  -0.4330   2.1812   4.3495

          k = 0.3750 0.1250 1.1250 (   283 PWs)   bands (ev):

    -2.2736  -0.7018   2.1036   3.2360

          k =-0.1250-0.1250 0.1250 (   295 PWs)   bands (ev):

    -5.6232   4.6588   5.9737   5.9737

          k =-0.1250 0.3750 0.1250 (   293 PWs)   bands (ev):

    -5.0665   3.0252   4.9219   5.0065

          k = 0.1250-0.3750 0.3750 (   292 PWs)   bands (ev):

    -4.5459   1.6016   3.9081   5.4848

          k = 0.1250 0.1250 0.3750 (   293 PWs)   bands (ev):

    -5.0665   3.0252   4.9219   5.0065

          k = 0.3750-0.1250 0.3750 (   292 PWs)   bands (ev):

    -4.5459   1.6016   3.9081   5.4848

          k = 0.3750 0.3750 0.3750 (   281 PWs)   bands (ev):

    -4.0837   0.2447   5.1668   5.1668

          k = 0.3750 0.1250 0.3750 (   292 PWs)   bands (ev):

    -4.5459   1.6016   3.9081   5.4848

          k = 0.3750 0.6250 0.3750 (   281 PWs)   bands (ev):

    -3.3375  -0.5695   3.9530   4.6830

          k =-0.6250 0.3750-0.3750 (   281 PWs)   bands (ev):

    -3.3375  -0.5695   3.9530   4.6830

          k =-0.6250 0.8750-0.3750 (   288 PWs)   bands (ev):

    -3.5559   0.3815   2.8752   4.2972

          k =-0.3750 0.6250-0.3750 (   281 PWs)   bands (ev):

    -3.3375  -0.5695   3.9530   4.6830

          k =-0.3750 1.1250-0.3750 (   286 PWs)   bands (ev):

    -2.8307  -0.4330   2.1812   4.3495

          k =-0.3750-0.6250-0.3750 (   281 PWs)   bands (ev):

    -3.3375  -0.5695   3.9530   4.6830

          k =-0.3750-0.1250-0.3750 (   292 PWs)   bands (ev):

    -4.5459   1.6016   3.9081   5.4848

          k =-0.3750 0.1250-0.1250 (   293 PWs)   bands (ev):

    -5.0665   3.0252   4.9219   5.0065

          k =-0.3750 0.6250-0.1250 (   288 PWs)   bands (ev):

    -3.5559   0.3815   2.8752   4.2972

          k =-0.1250 0.3750-0.1250 (   293 PWs)   bands (ev):

    -5.0665   3.0252   4.9219   5.0065

          k =-0.1250 0.8750-0.1250 (   286 PWs)   bands (ev):

    -2.4647  -0.5910   2.7503   3.5364

          k =-0.1250-0.3750-0.1250 (   293 PWs)   bands (ev):

    -5.0665   3.0252   4.9219   5.0065

          k =-0.1250 0.1250-0.1250 (   295 PWs)   bands (ev):

    -5.6232   4.6588   5.9737   5.9737

          k =-0.1250-0.6250 0.1250 (   289 PWs)   bands (ev):

    -3.9958   1.3190   3.5381   4.0176

          k =-0.1250-0.1250 0.1250 (   295 PWs)   bands (ev):

    -5.6232   4.6588   5.9737   5.9737

          k = 0.6250-0.1250-0.1250 (   289 PWs)   bands (ev):

    -3.9958   1.3190   3.5381   4.0176

          k = 0.6250 0.3750-0.1250 (   288 PWs)   bands (ev):

    -3.5559   0.3815   2.8752   4.2972

          k = 0.6250 0.1250 0.1250 (   289 PWs)   bands (ev):

    -3.9958   1.3190   3.5381   4.0176

          k = 0.6250 0.6250 0.1250 (   286 PWs)   bands (ev):

    -2.8307  -0.4330   2.1812   4.3495

          k =-0.8750 0.1250-0.6250 (   283 PWs)   bands (ev):

    -2.2736  -0.7018   2.1036   3.2360

          k =-0.8750 0.6250-0.6250 (   292 PWs)   bands (ev):

    -4.5459   1.6016   3.9081   5.4848

          k =-0.1250 0.6250-0.8750 (   283 PWs)   bands (ev):

    -2.2736  -0.7018   2.1036   3.2360

          k =-0.1250 1.1250-0.8750 (   286 PWs)   bands (ev):

    -2.4647  -0.5910   2.7503   3.5364

          k =-0.1250 0.8750-0.6250 (   283 PWs)   bands (ev):

    -2.2736  -0.7018   2.1036   3.2360

          k =-0.1250 1.3750-0.6250 (   286 PWs)   bands (ev):

    -2.8307  -0.4330   2.1812   4.3495

          k =-0.1250-0.8750-0.6250 (   283 PWs)   bands (ev):

    -2.2736  -0.7018   2.1036   3.2360

          k =-0.1250-0.3750-0.6250 (   288 PWs)   bands (ev):

    -3.5559   0.3815   2.8752   4.2972

          k = 0.8750-0.6250 0.1250 (   283 PWs)   bands (ev):

    -2.2736  -0.7018   2.1036   3.2360

          k = 0.8750-0.1250 0.1250 (   286 PWs)   bands (ev):

    -2.4647  -0.5910   2.7503   3.5364

          k =-0.6250-0.1250-0.3750 (   288 PWs)   bands (ev):

    -3.5559   0.3815   2.8752   4.2972

          k =-0.6250 0.3750-0.3750 (   281 PWs)   bands (ev):

    -3.3375  -0.5695   3.9530   4.6830

          k = 0.1250 0.3750-0.6250 (   288 PWs)   bands (ev):

    -3.5559   0.3815   2.8752   4.2972

          k = 0.1250 0.8750-0.6250 (   283 PWs)   bands (ev):

    -2.2736  -0.7018   2.1036   3.2360

          k = 0.1250 0.6250-0.3750 (   288 PWs)   bands (ev):

    -3.5559   0.3815   2.8752   4.2972

          k = 0.1250 1.1250-0.3750 (   283 PWs)   bands (ev):

    -2.2736  -0.7018   2.1036   3.2360

          k = 0.1250-0.6250-0.3750 (   288 PWs)   bands (ev):

    -3.5559   0.3815   2.8752   4.2972

          k = 0.1250-0.1250-0.3750 (   293 PWs)   bands (ev):

    -5.0665   3.0252   4.9219   5.0065

          k = 0.6250-0.3750-0.1250 (   288 PWs)   bands (ev):

    -3.5559   0.3815   2.8752   4.2972

          k = 0.6250 0.1250-0.1250 (   289 PWs)   bands (ev):

    -3.9958   1.3190   3.5381   4.0176

          k =-0.1250 0.8750 0.1250 (   286 PWs)   bands (ev):

    -2.4647  -0.5910   2.7503   3.5364

          k =-0.1250 1.3750 0.1250 (   289 PWs)   bands (ev):

    -3.9958   1.3190   3.5381   4.0176

          k =-0.8750-0.1250-0.1250 (   286 PWs)   bands (ev):

    -2.4647  -0.5910   2.7503   3.5364

          k =-0.8750 0.3750-0.1250 (   283 PWs)   bands (ev):

    -2.2736  -0.7018   2.1036   3.2360

          k =-0.8750 0.1250 0.1250 (   286 PWs)   bands (ev):

    -2.4647  -0.5910   2.7503   3.5364

          k =-0.8750 0.6250 0.1250 (   283 PWs)   bands (ev):

    -2.2736  -0.7018   2.1036   3.2360

          k =-0.3750-0.3750 0.3750 (   281 PWs)   bands (ev):

    -4.0837   0.2447   5.1668   5.1668

          k =-0.3750 0.1250 0.3750 (   292 PWs)   bands (ev):

    -4.5459   1.6016   3.9081   5.4848

          k =-1.1250 0.3750-0.3750 (   286 PWs)   bands (ev):

    -2.8307  -0.4330   2.1812   4.3495

          k =-1.1250 0.8750-0.3750 (   289 PWs)   bands (ev):

    -3.9958   1.3190   3.5381   4.0176

          k =-0.3750 1.1250-0.3750 (   286 PWs)   bands (ev):

    -2.8307  -0.4330   2.1812   4.3495

          k =-0.3750 1.6250-0.3750 (   281 PWs)   bands (ev):

    -4.0837   0.2447   5.1668   5.1668

          k =-0.3750-1.1250-0.3750 (   286 PWs)   bands (ev):

    -2.8307  -0.4330   2.1812   4.3495

          k =-0.3750-0.6250-0.3750 (   281 PWs)   bands (ev):

    -3.3375  -0.5695   3.9530   4.6830

     highest occupied level (ev):     5.9737

     Writing config to output data dir .//_ph0/si.save/ :
     XML data file

     phonons at Gamma                                                           

     bravais-lattice index     =            2
     lattice parameter (alat)  =      10.1870  a.u.
     unit-cell volume          =     264.2889 (a.u.)^3
     number of atoms/cell      =            2
     number of atomic types    =            1
     kinetic-energy cut-off    =      16.0000  Ry
     charge density cut-off    =      64.0000  Ry
     convergence threshold     =      1.0E-14
     beta                      =       0.7000
     number of iterations used =            4
     Exchange-correlation= PZ
                           (   1   1   0   0   0   0   0)


     celldm(1)=   10.18700  celldm(2)=    0.00000  celldm(3)=    0.00000
     celldm(4)=    0.00000  celldm(5)=    0.00000  celldm(6)=    0.00000

     crystal axes: (cart. coord. in units of alat)
               a(1) = ( -0.5000  0.0000  0.5000 )  
               a(2) = (  0.0000  0.5000  0.5000 )  
               a(3) = ( -0.5000  0.5000  0.0000 )  

     reciprocal axes: (cart. coord. in units 2 pi/alat)
               b(1) = ( -1.0000 -1.0000  1.0000 )  
               b(2) = (  1.0000  1.0000  1.0000 )  
               b(3) = ( -1.0000  1.0000 -1.0000 )  


     Atoms inside the unit cell: 

     Cartesian axes

     site n.  atom      mass           positions (alat units)
        1  Si     28.0855   tau(    1) = (    0.00000    0.00000    0.00000  )
        2  Si     28.0855   tau(    2) = (    0.25000    0.25000    0.25000  )

     Computing dynamical matrix for 
                    q = (   0.0000000   0.5000000   0.0000000 )

      8 Sym.Ops. (no q -> -q+G )


     G cutoff =  168.2336  (   1139 G-vectors)     FFT grid: ( 20, 20, 20)
     number of k points=    80

     PseudoPot. # 1 for Si read from file:
     ..//Si.pz-rrkj.UPF
     MD5 check sum: 884b380b739b48e9cd334294cddc9a8d
     Pseudo is Norm-conserving, Zval =  4.0
     Generated using "atomic" code by A. Dal Corso (espresso distribution)
     Using radial grid of 1141 points,  2 beta functions with: 
                l(1) =   0
                l(2) =   1

     Mode symmetry, C_4v (4mm)  point group:


     Atomic displacements:
     There are    4 irreducible representations

     Representation     1      1 modes -  To be done

     Representation     2      1 modes -  To be done

     Representation     3      2 modes -  To be done

     Representation     4      2 modes -  To be done



     Alpha used in Ewald sum =   0.7000
     PHONON       :      7.15s CPU     13.86s WALL



     Representation #   1 mode #   1

     Self-consistent Calculation

      iter #   1 total cpu time :    13.9 secs   av.it.:   5.8
      thresh= 1.000E-02 alpha_mix =  0.700 |ddv_scf|^2 =  3.209E-03

      iter #   2 total cpu time :    14.0 secs   av.it.:   7.3
      thresh= 5.665E-03 alpha_mix =  0.700 |ddv_scf|^2 =  4.326E-02

      iter #   3 total cpu time :    14.1 secs   av.it.:   6.6
      thresh= 1.000E-02 alpha_mix =  0.700 |ddv_scf|^2 =  2.625E-08

      iter #   4 total cpu time :    14.3 secs   av.it.:   8.5
      thresh= 1.620E-05 alpha_mix =  0.700 |ddv_scf|^2 =  1.719E-09

      iter #   5 total cpu time :    14.4 secs   av.it.:   8.0
      thresh= 4.146E-06 alpha_mix =  0.700 |ddv_scf|^2 =  2.966E-11

      iter #   6 total cpu time :    14.5 secs   av.it.:   7.3
      thresh= 5.446E-07 alpha_mix =  0.700 |ddv_scf|^2 =  1.098E-13

      iter #   7 total cpu time :    14.6 secs   av.it.:   7.8
      thresh= 3.314E-08 alpha_mix =  0.700 |ddv_scf|^2 =  1.056E-14

      iter #   8 total cpu time :    14.7 secs   av.it.:   6.9
      thresh= 1.028E-08 alpha_mix =  0.700 |ddv_scf|^2 =  4.749E-17

     End of self-consistent calculation

     Convergence has been achieved 


     Representation #   2 mode #   2

     Self-consistent Calculation

      iter #   1 total cpu time :    14.8 secs   av.it.:   5.0
      thresh= 1.000E-02 alpha_mix =  0.700 |ddv_scf|^2 =  5.540E-06

      iter #   2 total cpu time :    15.0 secs   av.it.:   8.2
      thresh= 2.354E-04 alpha_mix =  0.700 |ddv_scf|^2 =  1.216E-06

      iter #   3 total cpu time :    15.1 secs   av.it.:   8.0
      thresh= 1.103E-04 alpha_mix =  0.700 |ddv_scf|^2 =  4.739E-09

      iter #   4 total cpu time :    15.2 secs   av.it.:   8.0
      thresh= 6.884E-06 alpha_mix =  0.700 |ddv_scf|^2 =  1.031E-10

      iter #   5 total cpu time :    15.3 secs   av.it.:   7.5
      thresh= 1.015E-06 alpha_mix =  0.700 |ddv_scf|^2 =  1.665E-12

      iter #   6 total cpu time :    15.4 secs   av.it.:   7.4
      thresh= 1.290E-07 alpha_mix =  0.700 |ddv_scf|^2 =  1.254E-15

     End of self-consistent calculation

     Convergence has been achieved 


     Representation #   3 modes #   3   4

     Self-consistent Calculation

      iter #   1 total cpu time :    15.7 secs   av.it.:   5.1
      thresh= 1.000E-02 alpha_mix =  0.700 |ddv_scf|^2 =  1.262E-06

      iter #   2 total cpu time :    15.8 secs   av.it.:   9.1
      thresh= 1.123E-04 alpha_mix =  0.700 |ddv_scf|^2 =  1.959E-07

      iter #   3 total cpu time :    16.0 secs   av.it.:   8.6
      thresh= 4.426E-05 alpha_mix =  0.700 |ddv_scf|^2 =  1.589E-10

      iter #   4 total cpu time :    16.3 secs   av.it.:   8.5
      thresh= 1.261E-06 alpha_mix =  0.700 |ddv_scf|^2 =  8.164E-12

      iter #   5 total cpu time :    16.5 secs   av.it.:   8.3
      thresh= 2.857E-07 alpha_mix =  0.700 |ddv_scf|^2 =  8.821E-15

     End of self-consistent calculation

     Convergence has been achieved 


     Representation #   4 modes #   5   6

     Self-consistent Calculation

      iter #   1 total cpu time :    16.6 secs   av.it.:   5.0
      thresh= 1.000E-02 alpha_mix =  0.700 |ddv_scf|^2 =  8.320E-07

      iter #   2 total cpu time :    16.8 secs   av.it.:   9.1
      thresh= 9.122E-05 alpha_mix =  0.700 |ddv_scf|^2 =  1.258E-07

      iter #   3 total cpu time :    17.2 secs   av.it.:   8.6
      thresh= 3.547E-05 alpha_mix =  0.700 |ddv_scf|^2 =  1.709E-10

      iter #   4 total cpu time :    17.5 secs   av.it.:   8.6
      thresh= 1.307E-06 alpha_mix =  0.700 |ddv_scf|^2 =  9.199E-12

      iter #   5 total cpu time :    17.7 secs   av.it.:   8.3
      thresh= 3.033E-07 alpha_mix =  0.700 |ddv_scf|^2 =  1.029E-14

      iter #   6 total cpu time :    17.9 secs   av.it.:   9.4
      thresh= 1.014E-08 alpha_mix =  0.700 |ddv_scf|^2 =  4.836E-17

     End of self-consistent calculation

     Convergence has been achieved 

     Number of q in the star =    6
     List of q in the star:
          1   0.000000000   0.500000000   0.000000000
          2   0.000000000  -0.500000000   0.000000000
          3   0.500000000   0.000000000   0.000000000
          4   0.000000000   0.000000000   0.500000000
          5   0.000000000   0.000000000  -0.500000000
          6  -0.500000000   0.000000000   0.000000000

     Diagonalizing the dynamical matrix

     q = (    0.000000000   0.500000000   0.000000000 ) 

 **************************************************************************
     freq (    1) =       3.810331 [THz] =     127.098948 [cm-1]
     freq (    2) =       3.810331 [THz] =     127.098948 [cm-1]
     freq (    3) =       7.301814 [THz] =     243.562312 [cm-1]
     freq (    4) =      14.391214 [THz] =     480.039232 [cm-1]
     freq (    5) =      14.391214 [THz] =     480.039232 [cm-1]
     freq (    6) =      14.916255 [THz] =     497.552722 [cm-1]
 **************************************************************************

     Mode symmetry, C_4v (4mm)  point group:

     freq (   1-   2) =        127.1  [cm-1]   --> E    G_5 D_5       
     freq (   3-   3) =        243.6  [cm-1]   --> A_1  G_1 D_1       
     freq (   4-   5) =        480.0  [cm-1]   --> E    G_5 D_5       
     freq (   6-   6) =        497.6  [cm-1]   --> B_2  G_4 D_2'      

     Calculation of q =    0.7500000  -0.2500000   0.7500000

     Parallelization info
     --------------------
     sticks:   dense  smooth     PW     G-vecs:    dense   smooth      PW
     Min         117     117     54                 1138     1138     362
     Max         118     118     55                 1139     1139     363
     Sum         235     235    109                 2277     2277     725

     Using Slab Decomposition


     Title: 
     phonons at Gamma                                                           


     bravais-lattice index     =            2
     lattice parameter (alat)  =      10.1870  a.u.
     unit-cell volume          =     264.2889 (a.u.)^3
     number of atoms/cell      =            2
     number of atomic types    =            1
     number of electrons       =         8.00
     number of Kohn-Sham states=            4
     kinetic-energy cutoff     =      16.0000  Ry
     charge density cutoff     =      64.0000  Ry
     Exchange-correlation= PZ
                           (   1   1   0   0   0   0   0)

     celldm(1)=  10.187000  celldm(2)=   0.000000  celldm(3)=   0.000000
     celldm(4)=   0.000000  celldm(5)=   0.000000  celldm(6)=   0.000000

     crystal axes: (cart. coord. in units of alat)
               a(1) = (  -0.500000   0.000000   0.500000 )  
               a(2) = (   0.000000   0.500000   0.500000 )  
               a(3) = (  -0.500000   0.500000   0.000000 )  

     reciprocal axes: (cart. coord. in units 2 pi/alat)
               b(1) = ( -1.000000 -1.000000  1.000000 )  
               b(2) = (  1.000000  1.000000  1.000000 )  
               b(3) = ( -1.000000  1.000000 -1.000000 )  


     PseudoPot. # 1 for Si read from file:
     ..//Si.pz-rrkj.UPF
     MD5 check sum: 884b380b739b48e9cd334294cddc9a8d
     Pseudo is Norm-conserving, Zval =  4.0
     Generated using "atomic" code by A. Dal Corso (espresso distribution)
     Using radial grid of 1141 points,  2 beta functions with: 
                l(1) =   0
                l(2) =   1

     atomic species   valence    mass     pseudopotential
     Si                4.00    28.08550     Si( 1.00)

     48 Sym. Ops., with inversion, found



   Cartesian axes

     site n.     atom                  positions (alat units)
         1        Si     tau(   1) = (   0.0000000   0.0000000   0.0000000  )
         2        Si     tau(   2) = (   0.2500000   0.2500000   0.2500000  )

     number of k points=   288

     Number of k-points >= 100: set verbosity='high' to print them.

     Dense  grid:     2277 G-vectors     FFT dimensions: (  20,  20,  20)

     Estimated max dynamical RAM per process >       0.59 MB

     Estimated total dynamical RAM >       1.18 MB

     The potential is recalculated from file :
     .//_ph0/si.save/charge-density

     Starting wfcs are    8 atomic wfcs

     Band Structure Calculation
     Davidson diagonalization with overlap

     ethr =  1.25E-10,  avg # of iterations = 11.4

     total cpu time spent up to now is        2.3 secs

     End of band structure calculation

     Number of k-points >= 100: set verbosity='high' to print the bands.

     highest occupied level (ev):     5.9737

     Writing config to output data dir .//_ph0/si.save/ :
     XML data file

     phonons at Gamma                                                           

     bravais-lattice index     =            2
     lattice parameter (alat)  =      10.1870  a.u.
     unit-cell volume          =     264.2889 (a.u.)^3
     number of atoms/cell      =            2
     number of atomic types    =            1
     kinetic-energy cut-off    =      16.0000  Ry
     charge density cut-off    =      64.0000  Ry
     convergence threshold     =      1.0E-14
     beta                      =       0.7000
     number of iterations used =            4
     Exchange-correlation= PZ
                           (   1   1   0   0   0   0   0)


     celldm(1)=   10.18700  celldm(2)=    0.00000  celldm(3)=    0.00000
     celldm(4)=    0.00000  celldm(5)=    0.00000  celldm(6)=    0.00000

     crystal axes: (cart. coord. in units of alat)
               a(1) = ( -0.5000  0.0000  0.5000 )  
               a(2) = (  0.0000  0.5000  0.5000 )  
               a(3) = ( -0.5000  0.5000  0.0000 )  

     reciprocal axes: (cart. coord. in units 2 pi/alat)
               b(1) = ( -1.0000 -1.0000  1.0000 )  
               b(2) = (  1.0000  1.0000  1.0000 )  
               b(3) = ( -1.0000  1.0000 -1.0000 )  


     Atoms inside the unit cell: 

     Cartesian axes

     site n.  atom      mass           positions (alat units)
        1  Si     28.0855   tau(    1) = (    0.00000    0.00000    0.00000  )
        2  Si     28.0855   tau(    2) = (    0.25000    0.25000    0.25000  )

     Computing dynamical matrix for 
                    q = (   0.7500000  -0.2500000   0.7500000 )

      2 Sym.Ops. (no q -> -q+G )


     G cutoff =  168.2336  (   1139 G-vectors)     FFT grid: ( 20, 20, 20)
     number of k points=   288

     PseudoPot. # 1 for Si read from file:
     ..//Si.pz-rrkj.UPF
     MD5 check sum: 884b380b739b48e9cd334294cddc9a8d
     Pseudo is Norm-conserving, Zval =  4.0
     Generated using "atomic" code by A. Dal Corso (espresso distribution)
     Using radial grid of 1141 points,  2 beta functions with: 
                l(1) =   0
                l(2) =   1

     Mode symmetry, C_s (m)     point group:


     Atomic displacements:
     There are    6 irreducible representations

     Representation     1      1 modes -  To be done

     Representation     2      1 modes -  To be done

     Representation     3      1 modes -  To be done

     Representation     4      1 modes -  To be done

     Representation     5      1 modes -  To be done

     Representation     6      1 modes -  To be done



     Alpha used in Ewald sum =   0.7000
     PHONON       :     10.24s CPU     19.33s WALL



     Representation #   1 mode #   1

     Self-consistent Calculation

      iter #   1 total cpu time :    19.6 secs   av.it.:   5.5
      thresh= 1.000E-02 alpha_mix =  0.700 |ddv_scf|^2 =  1.383E-04

      iter #   2 total cpu time :    19.9 secs   av.it.:   8.1
      thresh= 1.176E-03 alpha_mix =  0.700 |ddv_scf|^2 =  4.021E-04

      iter #   3 total cpu time :    20.2 secs   av.it.:   7.1
      thresh= 2.005E-03 alpha_mix =  0.700 |ddv_scf|^2 =  1.527E-06

      iter #   4 total cpu time :    20.5 secs   av.it.:   7.6
      thresh= 1.236E-04 alpha_mix =  0.700 |ddv_scf|^2 =  6.058E-09

      iter #   5 total cpu time :    20.8 secs   av.it.:   8.1
      thresh= 7.783E-06 alpha_mix =  0.700 |ddv_scf|^2 =  5.942E-10

      iter #   6 total cpu time :    21.1 secs   av.it.:   8.0
      thresh= 2.438E-06 alpha_mix =  0.700 |ddv_scf|^2 =  2.436E-11

      iter #   7 total cpu time :    21.5 secs   av.it.:   8.1
      thresh= 4.935E-07 alpha_mix =  0.700 |ddv_scf|^2 =  1.328E-12

      iter #   8 total cpu time :    21.8 secs   av.it.:   8.2
      thresh= 1.152E-07 alpha_mix =  0.700 |ddv_scf|^2 =  7.451E-13

      iter #   9 total cpu time :    22.3 secs   av.it.:   7.4
      thresh= 8.632E-08 alpha_mix =  0.700 |ddv_scf|^2 =  2.047E-13

      iter #  10 total cpu time :    22.7 secs   av.it.:   7.6
      thresh= 4.524E-08 alpha_mix =  0.700 |ddv_scf|^2 =  5.911E-14

      iter #  11 total cpu time :    23.0 secs   av.it.:   7.4
      thresh= 2.431E-08 alpha_mix =  0.700 |ddv_scf|^2 =  7.716E-16

     End of self-consistent calculation

     Convergence has been achieved 


     Representation #   2 mode #   2

     Self-consistent Calculation

      iter #   1 total cpu time :    23.3 secs   av.it.:   5.6
      thresh= 1.000E-02 alpha_mix =  0.700 |ddv_scf|^2 =  8.454E-05

      iter #   2 total cpu time :    23.7 secs   av.it.:   8.2
      thresh= 9.194E-04 alpha_mix =  0.700 |ddv_scf|^2 =  2.387E-04

      iter #   3 total cpu time :    24.0 secs   av.it.:   7.1
      thresh= 1.545E-03 alpha_mix =  0.700 |ddv_scf|^2 =  8.417E-07

      iter #   4 total cpu time :    24.3 secs   av.it.:   7.8
      thresh= 9.174E-05 alpha_mix =  0.700 |ddv_scf|^2 =  6.410E-09

      iter #   5 total cpu time :    24.6 secs   av.it.:   7.9
      thresh= 8.006E-06 alpha_mix =  0.700 |ddv_scf|^2 =  9.999E-10

      iter #   6 total cpu time :    24.9 secs   av.it.:   7.9
      thresh= 3.162E-06 alpha_mix =  0.700 |ddv_scf|^2 =  3.521E-11

      iter #   7 total cpu time :    25.3 secs   av.it.:   8.1
      thresh= 5.934E-07 alpha_mix =  0.700 |ddv_scf|^2 =  2.493E-12

      iter #   8 total cpu time :    25.6 secs   av.it.:   8.1
      thresh= 1.579E-07 alpha_mix =  0.700 |ddv_scf|^2 =  5.024E-13

      iter #   9 total cpu time :    25.9 secs   av.it.:   7.4
      thresh= 7.088E-08 alpha_mix =  0.700 |ddv_scf|^2 =  2.760E-13

[...]
        k(   48) = (  -1.1250000  -1.1250000  -0.3750000), wk =   0.0000000
        k(   49) = (   0.6250000   0.1250000   0.3750000), wk =   0.0625000
        k(   50) = (   0.1250000  -0.8750000   0.3750000), wk =   0.0000000
        k(   51) = (  -0.3750000  -0.1250000   0.6250000), wk =   0.0625000
        k(   52) = (  -0.8750000  -1.1250000   0.6250000), wk =   0.0000000
        k(   53) = (   0.1250000   0.6250000   0.3750000), wk =   0.0625000
        k(   54) = (  -0.3750000  -0.3750000   0.3750000), wk =   0.0000000
        k(   55) = (  -0.1250000   0.6250000  -0.3750000), wk =   0.0625000
        k(   56) = (  -0.6250000  -0.3750000  -0.3750000), wk =   0.0000000
        k(   57) = (   0.1250000  -0.8750000  -0.1250000), wk =   0.0625000
        k(   58) = (  -0.3750000  -1.8750000  -0.1250000), wk =   0.0000000
        k(   59) = (  -0.8750000   0.1250000  -0.1250000), wk =   0.0625000
        k(   60) = (  -1.3750000  -0.8750000  -0.1250000), wk =   0.0000000
        k(   61) = (  -1.1250000   0.3750000  -0.3750000), wk =   0.0625000
        k(   62) = (  -1.6250000  -0.6250000  -0.3750000), wk =   0.0000000
        k(   63) = (  -0.3750000   0.3750000   1.1250000), wk =   0.0625000
        k(   64) = (  -0.8750000  -0.6250000   1.1250000), wk =   0.0000000

     Dense  grid:     2277 G-vectors     FFT dimensions: (  20,  20,  20)

     Estimated max dynamical RAM per process >       0.59 MB

     Estimated total dynamical RAM >       1.18 MB

     The potential is recalculated from file :
     .//_ph0/si.save/charge-density

     Starting wfcs are    8 atomic wfcs

     Band Structure Calculation
     Davidson diagonalization with overlap

     ethr =  1.25E-10,  avg # of iterations = 11.4

     total cpu time spent up to now is        3.5 secs

     End of band structure calculation

          k =-0.1250 0.1250 0.1250 (   295 PWs)   bands (ev):

    -5.6232   4.6588   5.9737   5.9737

          k =-0.6250-0.8750 0.1250 (   283 PWs)   bands (ev):

    -2.2736  -0.7018   2.1036   3.2360

          k =-0.3750 0.3750-0.1250 (   292 PWs)   bands (ev):

    -4.5459   1.6016   3.9081   5.4848

          k =-0.8750-0.6250-0.1250 (   283 PWs)   bands (ev):

    -2.2736  -0.7018   2.1036   3.2360

          k = 0.3750-0.3750 0.6250 (   281 PWs)   bands (ev):

    -3.3375  -0.5695   3.9530   4.6830

          k =-0.1250-1.3750 0.6250 (   286 PWs)   bands (ev):

    -2.8307  -0.4330   2.1812   4.3495

          k = 0.1250-0.1250 0.3750 (   293 PWs)   bands (ev):

    -5.0665   3.0252   4.9219   5.0065

          k =-0.3750-1.1250 0.3750 (   286 PWs)   bands (ev):

    -2.8307  -0.4330   2.1812   4.3495

          k =-0.1250 0.6250 0.1250 (   289 PWs)   bands (ev):

    -3.9958   1.3190   3.5381   4.0176

          k =-0.6250-0.3750 0.1250 (   288 PWs)   bands (ev):

    -3.5559   0.3815   2.8752   4.2972

          k = 0.6250-0.1250 0.8750 (   283 PWs)   bands (ev):

    -2.2736  -0.7018   2.1036   3.2360

          k = 0.1250-1.1250 0.8750 (   286 PWs)   bands (ev):

    -2.4647  -0.5910   2.7503   3.5364

          k = 0.3750 0.1250 0.6250 (   288 PWs)   bands (ev):

    -3.5559   0.3815   2.8752   4.2972

          k =-0.1250-0.8750 0.6250 (   283 PWs)   bands (ev):

    -2.2736  -0.7018   2.1036   3.2360

          k =-0.1250-0.8750 0.1250 (   286 PWs)   bands (ev):

    -2.4647  -0.5910   2.7503   3.5364

          k =-0.6250-1.8750 0.1250 (   289 PWs)   bands (ev):

    -3.9958   1.3190   3.5381   4.0176

          k =-0.3750 0.3750 0.3750 (   281 PWs)   bands (ev):

    -4.0837   0.2447   5.1668   5.1668

          k =-0.8750-0.6250 0.3750 (   288 PWs)   bands (ev):

    -3.5559   0.3815   2.8752   4.2972

          k = 0.3750-0.3750 1.1250 (   286 PWs)   bands (ev):

    -2.8307  -0.4330   2.1812   4.3495

          k =-0.1250-1.3750 1.1250 (   283 PWs)   bands (ev):

    -2.2736  -0.7018   2.1036   3.2360

          k = 0.1250-0.3750 0.3750 (   292 PWs)   bands (ev):

    -4.5459   1.6016   3.9081   5.4848

          k =-0.3750-1.3750 0.3750 (   281 PWs)   bands (ev):

    -3.3375  -0.5695   3.9530   4.6830

          k = 0.3750-0.3750-0.1250 (   292 PWs)   bands (ev):

    -4.5459   1.6016   3.9081   5.4848

          k =-0.1250-1.3750-0.1250 (   289 PWs)   bands (ev):

    -3.9958   1.3190   3.5381   4.0176

          k =-0.6250 0.3750-0.3750 (   281 PWs)   bands (ev):

    -3.3375  -0.5695   3.9530   4.6830

          k =-1.1250-0.6250-0.3750 (   288 PWs)   bands (ev):

    -3.5559   0.3815   2.8752   4.2972

          k =-0.3750 0.3750 0.6250 (   281 PWs)   bands (ev):

    -3.3375  -0.5695   3.9530   4.6830

          k =-0.8750-0.6250 0.6250 (   292 PWs)   bands (ev):

    -4.5459   1.6016   3.9081   5.4848

          k =-0.3750 0.1250-0.1250 (   293 PWs)   bands (ev):

    -5.0665   3.0252   4.9219   5.0065

          k =-0.8750-0.8750-0.1250 (   286 PWs)   bands (ev):

    -2.4647  -0.5910   2.7503   3.5364

          k =-0.1250 0.1250 0.3750 (   293 PWs)   bands (ev):

    -5.0665   3.0252   4.9219   5.0065

          k =-0.6250-0.8750 0.3750 (   288 PWs)   bands (ev):

    -3.5559   0.3815   2.8752   4.2972

          k = 0.1250 0.6250-0.1250 (   289 PWs)   bands (ev):

    -3.9958   1.3190   3.5381   4.0176

          k =-0.3750-0.3750-0.1250 (   292 PWs)   bands (ev):

    -4.5459   1.6016   3.9081   5.4848

          k = 0.6250 0.1250-0.1250 (   289 PWs)   bands (ev):

    -3.9958   1.3190   3.5381   4.0176

          k = 0.1250-0.8750-0.1250 (   286 PWs)   bands (ev):

    -2.4647  -0.5910   2.7503   3.5364

          k =-0.8750 0.1250-0.6250 (   283 PWs)   bands (ev):

    -2.2736  -0.7018   2.1036   3.2360

          k =-1.3750-0.8750-0.6250 (   292 PWs)   bands (ev):

    -4.5459   1.6016   3.9081   5.4848

          k = 0.8750-0.1250 0.6250 (   283 PWs)   bands (ev):

    -2.2736  -0.7018   2.1036   3.2360

          k = 0.3750-1.1250 0.6250 (   288 PWs)   bands (ev):

    -3.5559   0.3815   2.8752   4.2972

          k =-0.6250 0.1250 0.8750 (   283 PWs)   bands (ev):

    -2.2736  -0.7018   2.1036   3.2360

          k =-1.1250-0.8750 0.8750 (   295 PWs)   bands (ev):

    -5.6232   4.6588   5.9737   5.9737

          k =-0.1250 0.8750 0.6250 (   283 PWs)   bands (ev):

    -2.2736  -0.7018   2.1036   3.2360

          k =-0.6250-0.1250 0.6250 (   286 PWs)   bands (ev):

    -2.8307  -0.4330   2.1812   4.3495

          k = 0.1250 0.8750-0.6250 (   283 PWs)   bands (ev):

    -2.2736  -0.7018   2.1036   3.2360

          k =-0.3750-0.1250-0.6250 (   288 PWs)   bands (ev):

    -3.5559   0.3815   2.8752   4.2972

          k =-0.6250-0.1250-0.3750 (   288 PWs)   bands (ev):

    -3.5559   0.3815   2.8752   4.2972

          k =-1.1250-1.1250-0.3750 (   289 PWs)   bands (ev):

    -3.9958   1.3190   3.5381   4.0176

          k = 0.6250 0.1250 0.3750 (   288 PWs)   bands (ev):

    -3.5559   0.3815   2.8752   4.2972

          k = 0.1250-0.8750 0.3750 (   283 PWs)   bands (ev):

    -2.2736  -0.7018   2.1036   3.2360

          k =-0.3750-0.1250 0.6250 (   288 PWs)   bands (ev):

    -3.5559   0.3815   2.8752   4.2972

          k =-0.8750-1.1250 0.6250 (   293 PWs)   bands (ev):

    -5.0665   3.0252   4.9219   5.0065

          k = 0.1250 0.6250 0.3750 (   288 PWs)   bands (ev):

    -3.5559   0.3815   2.8752   4.2972

          k =-0.3750-0.3750 0.3750 (   281 PWs)   bands (ev):

    -4.0837   0.2447   5.1668   5.1668

          k =-0.1250 0.6250-0.3750 (   288 PWs)   bands (ev):

    -3.5559   0.3815   2.8752   4.2972

          k =-0.6250-0.3750-0.3750 (   281 PWs)   bands (ev):

    -3.3375  -0.5695   3.9530   4.6830

          k = 0.1250-0.8750-0.1250 (   286 PWs)   bands (ev):

    -2.4647  -0.5910   2.7503   3.5364

          k =-0.3750-1.8750-0.1250 (   293 PWs)   bands (ev):

    -5.0665   3.0252   4.9219   5.0065

          k =-0.8750 0.1250-0.1250 (   286 PWs)   bands (ev):

    -2.4647  -0.5910   2.7503   3.5364

          k =-1.3750-0.8750-0.1250 (   283 PWs)   bands (ev):

    -2.2736  -0.7018   2.1036   3.2360

          k =-1.1250 0.3750-0.3750 (   286 PWs)   bands (ev):

    -2.8307  -0.4330   2.1812   4.3495

          k =-1.6250-0.6250-0.3750 (   281 PWs)   bands (ev):

    -3.3375  -0.5695   3.9530   4.6830

          k =-0.3750 0.3750 1.1250 (   286 PWs)   bands (ev):

    -2.8307  -0.4330   2.1812   4.3495

          k =-0.8750-0.6250 1.1250 (   293 PWs)   bands (ev):

    -5.0665   3.0252   4.9219   5.0065

     highest occupied level (ev):     5.9737

     Writing config to output data dir .//_ph0/si.save/ :
     XML data file

     phonons at Gamma                                                           

     bravais-lattice index     =            2
     lattice parameter (alat)  =      10.1870  a.u.
     unit-cell volume          =     264.2889 (a.u.)^3
     number of atoms/cell      =            2
     number of atomic types    =            1
     kinetic-energy cut-off    =      16.0000  Ry
     charge density cut-off    =      64.0000  Ry
     convergence threshold     =      1.0E-14
     beta                      =       0.7000
     number of iterations used =            4
     Exchange-correlation= PZ
                           (   1   1   0   0   0   0   0)


     celldm(1)=   10.18700  celldm(2)=    0.00000  celldm(3)=    0.00000
     celldm(4)=    0.00000  celldm(5)=    0.00000  celldm(6)=    0.00000

     crystal axes: (cart. coord. in units of alat)
               a(1) = ( -0.5000  0.0000  0.5000 )  
               a(2) = (  0.0000  0.5000  0.5000 )  
               a(3) = ( -0.5000  0.5000  0.0000 )  

     reciprocal axes: (cart. coord. in units 2 pi/alat)
               b(1) = ( -1.0000 -1.0000  1.0000 )  
               b(2) = (  1.0000  1.0000  1.0000 )  
               b(3) = ( -1.0000  1.0000 -1.0000 )  


     Atoms inside the unit cell: 

     Cartesian axes

     site n.  atom      mass           positions (alat units)
        1  Si     28.0855   tau(    1) = (    0.00000    0.00000    0.00000  )
        2  Si     28.0855   tau(    2) = (    0.25000    0.25000    0.25000  )

     Computing dynamical matrix for 
                    q = (  -0.5000000  -1.0000000   0.0000000 )

      8 Sym.Ops. (no q -> -q+G )


     G cutoff =  168.2336  (   1139 G-vectors)     FFT grid: ( 20, 20, 20)
     number of k points=    64

     PseudoPot. # 1 for Si read from file:
     ..//Si.pz-rrkj.UPF
     MD5 check sum: 884b380b739b48e9cd334294cddc9a8d
     Pseudo is Norm-conserving, Zval =  4.0
     Generated using "atomic" code by A. Dal Corso (espresso distribution)
     Using radial grid of 1141 points,  2 beta functions with: 
                l(1) =   0
                l(2) =   1


     Atomic displacements:
     There are    3 irreducible representations

     Representation     1      2 modes -  To be done

     Representation     2      2 modes -  To be done

     Representation     3      2 modes -  To be done



     Alpha used in Ewald sum =   0.7000
     PHONON       :     27.27s CPU     49.08s WALL



     Representation #   1 modes #   1   2

     Self-consistent Calculation

      iter #   1 total cpu time :    49.2 secs   av.it.:   5.4
      thresh= 1.000E-02 alpha_mix =  0.700 |ddv_scf|^2 =  1.061E-05

      iter #   2 total cpu time :    49.4 secs   av.it.:   9.2
      thresh= 3.257E-04 alpha_mix =  0.700 |ddv_scf|^2 =  1.370E-05

      iter #   3 total cpu time :    49.7 secs   av.it.:   8.4
      thresh= 3.701E-04 alpha_mix =  0.700 |ddv_scf|^2 =  1.482E-09

      iter #   4 total cpu time :    49.9 secs   av.it.:   8.8
      thresh= 3.849E-06 alpha_mix =  0.700 |ddv_scf|^2 =  3.356E-11

      iter #   5 total cpu time :    50.1 secs   av.it.:   8.4
      thresh= 5.793E-07 alpha_mix =  0.700 |ddv_scf|^2 =  9.996E-14

      iter #   6 total cpu time :    50.3 secs   av.it.:   8.3
      thresh= 3.162E-08 alpha_mix =  0.700 |ddv_scf|^2 =  2.077E-15

     End of self-consistent calculation

     Convergence has been achieved 


     Representation #   2 modes #   3   4

     Self-consistent Calculation

      iter #   1 total cpu time :    50.4 secs   av.it.:   5.4
      thresh= 1.000E-02 alpha_mix =  0.700 |ddv_scf|^2 =  5.022E-06

      iter #   2 total cpu time :    50.6 secs   av.it.:   9.2
      thresh= 2.241E-04 alpha_mix =  0.700 |ddv_scf|^2 =  3.227E-06

      iter #   3 total cpu time :    50.8 secs   av.it.:   8.5
      thresh= 1.796E-04 alpha_mix =  0.700 |ddv_scf|^2 =  2.737E-10

      iter #   4 total cpu time :    50.9 secs   av.it.:   8.5
      thresh= 1.654E-06 alpha_mix =  0.700 |ddv_scf|^2 =  1.788E-11

      iter #   5 total cpu time :    51.1 secs   av.it.:   8.5
      thresh= 4.229E-07 alpha_mix =  0.700 |ddv_scf|^2 =  3.096E-14

      iter #   6 total cpu time :    51.2 secs   av.it.:   9.2
      thresh= 1.760E-08 alpha_mix =  0.700 |ddv_scf|^2 =  3.384E-16

     End of self-consistent calculation

     Convergence has been achieved 


     Representation #   3 modes #   5   6

     Self-consistent Calculation

      iter #   1 total cpu time :    51.4 secs   av.it.:   5.5
      thresh= 1.000E-02 alpha_mix =  0.700 |ddv_scf|^2 =  6.062E-06

      iter #   2 total cpu time :    51.6 secs   av.it.:   9.2
      thresh= 2.462E-04 alpha_mix =  0.700 |ddv_scf|^2 =  4.006E-06

      iter #   3 total cpu time :    51.8 secs   av.it.:   8.5
      thresh= 2.002E-04 alpha_mix =  0.700 |ddv_scf|^2 =  2.349E-10

      iter #   4 total cpu time :    52.2 secs   av.it.:   8.8
      thresh= 1.533E-06 alpha_mix =  0.700 |ddv_scf|^2 =  2.808E-11

      iter #   5 total cpu time :    52.4 secs   av.it.:   8.6
      thresh= 5.299E-07 alpha_mix =  0.700 |ddv_scf|^2 =  1.514E-14

      iter #   6 total cpu time :    52.6 secs   av.it.:   9.2
      thresh= 1.231E-08 alpha_mix =  0.700 |ddv_scf|^2 =  3.568E-16

     End of self-consistent calculation

     Convergence has been achieved 

     Number of q in the star =    6
     List of q in the star:
          1  -0.500000000  -1.000000000   0.000000000
          2   0.000000000   1.000000000   0.500000000
          3   0.000000000  -1.000000000  -0.500000000
          4   0.500000000   1.000000000   0.000000000
          5  -1.000000000  -0.500000000   0.000000000
          6   0.000000000  -0.500000000  -1.000000000

     Diagonalizing the dynamical matrix

     q = (   -0.500000000  -1.000000000   0.000000000 ) 

 **************************************************************************
     freq (    1) =       6.070060 [THz] =     202.475415 [cm-1]
     freq (    2) =       6.070060 [THz] =     202.475415 [cm-1]
     freq (    3) =      10.720647 [THz] =     357.602305 [cm-1]
     freq (    4) =      10.720647 [THz] =     357.602305 [cm-1]
     freq (    5) =      14.170584 [THz] =     472.679802 [cm-1]
     freq (    6) =      14.170584 [THz] =     472.679802 [cm-1]
 **************************************************************************

     init_run     :      0.04s CPU      0.08s WALL (       7 calls)
     electrons    :      2.68s CPU      3.18s WALL (       7 calls)

     Called by init_run:
     wfcinit      :      0.00s CPU      0.00s WALL (       7 calls)
     potinit      :      0.00s CPU      0.01s WALL (       7 calls)
     hinit0       :      0.02s CPU      0.03s WALL (       7 calls)

     Called by electrons:
     c_bands      :      2.68s CPU      3.14s WALL (       7 calls)
     v_of_rho     :      0.00s CPU      0.00s WALL (       8 calls)

     Called by c_bands:
     init_us_2    :      0.28s CPU      0.37s WALL (   21040 calls)
     cegterg      :      2.24s CPU      2.63s WALL (     796 calls)

     Called by *egterg:
     cdiaghg      :      0.82s CPU      0.96s WALL (    9870 calls)
     h_psi        :     18.25s CPU     24.11s WALL (  173997 calls)
     g_psi        :      0.02s CPU      0.03s WALL (    9074 calls)

     Called by h_psi:
     h_psi:calbec :      0.88s CPU      1.16s WALL (  173997 calls)
     vloc_psi     :     16.19s CPU     21.40s WALL (  173997 calls)
     add_vuspsi   :      0.42s CPU      0.57s WALL (  173997 calls)

     General routines
     calbec       :      1.20s CPU      1.63s WALL (  351230 calls)
     fft          :      0.16s CPU      0.17s WALL (     995 calls)
     ffts         :      0.04s CPU      0.05s WALL (    2700 calls)
     fftw         :     14.99s CPU     19.79s WALL ( 1529904 calls)
     davcio       :      0.47s CPU      0.69s WALL (   93364 calls)

     Parallel routines

     PHONON       :     29.01s CPU     52.68s WALL

     INITIALIZATION: 
     phq_setup    :      0.01s CPU      0.17s WALL (       8 calls)
     phq_init     :      0.05s CPU      0.06s WALL (       8 calls)

     phq_init     :      0.05s CPU      0.06s WALL (       8 calls)
     init_vloc    :      0.01s CPU      0.01s WALL (       8 calls)
     init_us_1    :      0.00s CPU      0.00s WALL (       8 calls)
     init_us_2    :      0.28s CPU      0.37s WALL (   21040 calls)

     DYNAMICAL MATRIX:
     dynmat0      :      0.02s CPU      0.04s WALL (       8 calls)
     dynmat_us    :      0.02s CPU      0.03s WALL (       8 calls)
     d2ionq       :      0.00s CPU      0.00s WALL (       8 calls)
     phqscf       :     25.62s CPU     47.55s WALL (       8 calls)
     dynmatrix    :      0.01s CPU      0.17s WALL (       8 calls)

     phqscf       :     25.62s CPU     47.55s WALL (       8 calls)
     solve_linter :     25.53s CPU     46.00s WALL (      32 calls)
     sth_kernel   :     24.84s CPU     33.18s WALL (     224 calls)
     h_prec       :      0.06s CPU      0.08s WALL (   15414 calls)
     apply_dpot_b :      1.65s CPU      2.20s WALL (   15562 calls)
     ortho        :      0.12s CPU      0.16s WALL (   18070 calls)
     cgsolve      :     20.59s CPU     27.48s WALL (   18070 calls)
     incdrhoscf   :      1.78s CPU      2.36s WALL (   18040 calls)
                                        0.00s GPU  (   18040 calls)
     dv_of_drho   :      0.02s CPU      0.02s WALL (     321 calls)
     mix_pot      :      0.05s CPU      0.08s WALL (     224 calls)
     drhodv       :      0.08s CPU      0.12s WALL (      32 calls)
     psymdvscf    :      0.39s CPU      0.41s WALL (     219 calls)

     dvqpsi_us    :      0.35s CPU      0.43s WALL (    2508 calls)
                                        0.00s GPU  (    2508 calls)
     dvqpsi_us_on :      0.03s CPU      0.04s WALL (    2508 calls)

     add_vuspsi   :      0.42s CPU      0.57s WALL (  173997 calls)


      General routines
     calbec       :      1.20s CPU      1.63s WALL (  351230 calls)
     fft          :      0.16s CPU      0.17s WALL (     995 calls)
     ffts         :      0.04s CPU      0.05s WALL (    2700 calls)
     fftw         :     14.99s CPU     19.79s WALL ( 1529904 calls)
     davcio       :      0.47s CPU      0.69s WALL (   93364 calls)
     write_rec    :      0.05s CPU     13.62s WALL (     256 calls)

      Additional routines
     ch_psi       :     19.77s CPU     26.35s WALL (  163331 calls)
     last         :      2.15s CPU      2.87s WALL (  163331 calls)
     Hesh         :      0.13s CPU      0.17s WALL (  163331 calls)
     ch_psi_all_k :      1.73s CPU      2.31s WALL (  163331 calls)
                                        0.00s GPU  (  163331 calls)
     ch_psi_calbe :      0.72s CPU      0.95s WALL (  163331 calls)
                                        0.00s GPU  (  163331 calls)
     h_psi_bgrp   :     18.45s CPU     24.36s WALL (  173997 calls)
     h_psi        :     18.25s CPU     24.11s WALL (  173997 calls)
     h_psi:pot    :     17.91s CPU     23.65s WALL (  173997 calls)
     h_psi:calbec :      0.88s CPU      1.16s WALL (  173997 calls)
     s_psi_bgrp   :      0.39s CPU      0.53s WALL (  344732 calls)


     PHONON       :     29.01s CPU     52.68s WALL


   This run was terminated on:  10:46:17  15Oct2024            

=------------------------------------------------------------------------------=
   JOB DONE.
=------------------------------------------------------------------------------=
