LAMMPS (23 Jun 2022 - Update 4)
OMP_NUM_THREADS environment is not set. Defaulting to 1 thread. (src/src/comm.cpp:98)
  using 1 OpenMP thread(s) per MPI task
# MSE 401 Lab 2
# Heat and cooling of Aluminum using Molecular Dynamics

# Section 1: Setting up initial parameters

# Define unit set and class of atomic model
units metal
atom_style atomic

# Parameters for Problems 2.1:
# -----------------------------------------------------------------------------
variable TempInitial equal 900
variable TempFinal equal 2000
variable TempStep equal 25
variable StepSize equal 0.001
# -----------------------------------------------------------------------------

# Periodic boundary conditions along all three dimensions
boundary p p p

# Create an FCC lattice with the lattice spacing supplied supplied by the user
# using a single conventional (orthogonal) unit cell

lattice fcc 4.04525
Lattice spacing in x,y,z = 4.04525 4.04525 4.04525
region  box block 0 2 0 2 0 2 units lattice
create_box  1 box
Created orthogonal box = (0 0 0) to (8.0905 8.0905 8.0905)
  1 by 1 by 2 MPI processor grid
create_atoms 1 box
Created 32 atoms
  using lattice units in orthogonal box = (0 0 0) to (8.0905 8.0905 8.0905)
  create_atoms CPU = 0.000 seconds

# Specify which force fields or potentials to use
pair_style eam/alloy
pair_coeff * * ./Al_mm.eam.fs  Al
Reading eam/alloy potential file ./Al_mm.eam.fs with DATE: 2007-06-11
#pair_style	lj/cut 2.5
#pair_coeff	1 1 1.0 1.0 2.5

# Create files outside of any loops
variable prallfile string prall.txt
# Print headers
print "Temp                     Press                     Vol                     Etotal" file ${prallfile}
print "Temp                     Press                     Vol                     Etotal" file prall.txt
Temp                     Press                     Vol                     Etotal

# Set what thermodynamic information to print to log
compute mytemp all temp
compute mypress all pressure thermo_temp
# compute statements to normalize the pe and ke
compute NormPE all pe/atom
compute NormKE all ke/atom
# calculate average value over atoms
compute avgPE all reduce ave c_NormPE
compute avgKE all reduce ave c_NormKE
# create variables for average Etotal, Temp, and Pressure, and vol
variable avgEtotal   equal c_avgPE+c_avgKE
variable vmytemp   equal c_mytemp
variable vmypress   equal c_mypress
variable vmyvol  equal vol

# set thermo style which determines what thermo data will be displayed on each timestep of our runs
thermo_style custom step time temp pe ke etotal c_mytemp c_mypress vol
timestep 0.001

# Section 2: Starting MD runs

# NVE stabilization run
variable tempinit equal 600 # Use 2*${tempvar} for fixed E ensemble.
velocity all create ${tempinit} 825577 dist gaussian
velocity all create 600 825577 dist gaussian
fix 1 all nve # nve ensemble molecular dynamics.
fix 2 all ave/time 1 10 10 c_mytemp c_mypress v_vmyvol v_avgEtotal file nveeqfile.txt
thermo 1000 # Print every "thermo" timesteps
run 5000
Neighbor list info ...
  update every 1 steps, delay 10 steps, check yes
  max neighbors/atom: 2000, page size: 100000
  master list distance cutoff = 8.5
  ghost atom cutoff = 8.5
  binsize = 4.25, bins = 2 2 2
  1 neighbor lists, perpetual/occasional/extra = 1 0 0
  (1) pair eam/alloy, perpetual
      attributes: half, newton on
      pair build: half/bin/atomonly/newton
      stencil: half/bin/3d
      bin: standard
Per MPI rank memory allocation (min/avg/max) = 3.346 | 3.346 | 3.346 Mbytes
   Step          Time           Temp          PotEng         KinEng         TotEng        c_mytemp      c_mypress        Volume    
         0   0              600           -109.14102      2.4042387     -106.73678      600            4854.6303      529.57331    
      1000   1              297.43987     -107.9281       1.1918607     -106.73624      297.43987      16140.891      529.57331    
      2000   2              328.31007     -108.05193      1.3155596     -106.73637      328.31007      15910.49       529.57331    
      3000   3              323.22736     -108.03156      1.2951929     -106.73636      323.22736      15720.917      529.57331    
      4000   4              271.89734     -107.82573      1.0895102     -106.73622      271.89734      16892.09       529.57331    
      5000   5              350.10661     -108.13931      1.4028998     -106.73641      350.10661      15163.968      529.57331    
Loop time of 0.373104 on 2 procs for 5000 steps with 32 atoms

Performance: 1157.855 ns/day, 0.021 hours/ns, 13401.102 timesteps/s
98.4% CPU use with 2 MPI tasks x 1 OpenMP threads

MPI task timing breakdown:
Section |  min time  |  avg time  |  max time  |%varavg| %total
---------------------------------------------------------------
Pair    | 0.2412     | 0.2593     | 0.27741    |   3.6 | 69.50
Neigh   | 0          | 0          | 0          |   0.0 |  0.00
Comm    | 0.048129   | 0.066279   | 0.08443    |   7.1 | 17.76
Output  | 3.8893e-05 | 5.7574e-05 | 7.6255e-05 |   0.0 |  0.02
Modify  | 0.038679   | 0.040959   | 0.043238   |   1.1 | 10.98
Other   |            | 0.006507   |            |       |  1.74

Nlocal:             16 ave          16 max          16 min
Histogram: 2 0 0 0 0 0 0 0 0 0
Nghost:            914 ave         914 max         914 min
Histogram: 2 0 0 0 0 0 0 0 0 0
Neighs:           1120 ave        1314 max         926 min
Histogram: 1 0 0 0 0 0 0 0 0 1

Total # of neighbors = 2240
Ave neighs/atom = 70
Neighbor list builds = 0
Dangerous builds = 0
unfix 2
unfix 1

# NPT stabilization run
fix 1 all npt temp 700 700 0.1 iso 100000 100000 1 drag 1 # npt ensemble molecular dynamics.
fix 2 all ave/time 1 10 10 c_mytemp c_mypress v_vmyvol v_avgEtotal file npteqfile.txt
thermo 1000
run 5000
Per MPI rank memory allocation (min/avg/max) = 3.605 | 3.605 | 3.605 Mbytes
   Step          Time           Temp          PotEng         KinEng         TotEng        c_mytemp      c_mypress        Volume    
      5000   5              350.10661     -108.13931      1.4028998     -106.73641      350.10661      15163.968      529.57331    
      6000   6              605.73065     -105.50341      2.4272018     -103.07621      605.73065      89583.722      502.97346    
      7000   7              655.93973     -105.37894      2.6283928     -102.75055      655.93973      103583.06      497.20314    
      8000   8              665.02452     -105.31202      2.6647962     -102.64723      665.02452      103726.31      496.16874    
      9000   9              792.28199     -105.87596      3.174725      -102.70123      792.28199      101488.59      497.03407    
     10000   10             711.22436     -105.6937       2.8499219     -102.84378      711.22436      96710.836      499.24656    
Loop time of 0.402108 on 2 procs for 5000 steps with 32 atoms

Performance: 1074.337 ns/day, 0.022 hours/ns, 12434.458 timesteps/s
97.0% CPU use with 2 MPI tasks x 1 OpenMP threads

MPI task timing breakdown:
Section |  min time  |  avg time  |  max time  |%varavg| %total
---------------------------------------------------------------
Pair    | 0.26783    | 0.27388    | 0.27992    |   1.2 | 68.11
Neigh   | 0          | 0          | 0          |   0.0 |  0.00
Comm    | 0.049796   | 0.056066   | 0.062335   |   2.6 | 13.94
Output  | 8.7176e-05 | 0.00016199 | 0.0002368  |   0.0 |  0.04
Modify  | 0.066991   | 0.067464   | 0.067938   |   0.2 | 16.78
Other   |            | 0.004539   |            |       |  1.13

Nlocal:             16 ave          17 max          15 min
Histogram: 1 0 0 0 0 0 0 0 0 1
Nghost:            914 ave         915 max         913 min
Histogram: 1 0 0 0 0 0 0 0 0 1
Neighs:         1184.5 ave        1272 max        1097 min
Histogram: 1 0 0 0 0 0 0 0 0 1

Total # of neighbors = 2369
Ave neighs/atom = 74.03125
Neighbor list builds = 0
Dangerous builds = 0
unfix 2
unfix 1

# --------------------------------------------------------------------------------------------
# Generate loops to ramp temperature up
variable LoopSize equal 21
label LoopStart
variable i loop ${LoopSize}
variable i loop 21
print " "
 
print "*******LOOP # $i*********"
*******LOOP # 1*********
print " "
 
variable tempvar equal ${TempStep}*${i}+${TempInitial}-${TempStep}
variable tempvar equal 25*${i}+${TempInitial}-${TempStep}
variable tempvar equal 25*1+${TempInitial}-${TempStep}
variable tempvar equal 25*1+900-${TempStep}
variable tempvar equal 25*1+900-25
variable rampup_eqavgfile string rampup_eqavg_${tempvar}.txt
variable rampup_eqavgfile string rampup_eqavg_900.txt
variable rampup_pravgfile string rampup_pravg_${tempvar}.txt
variable rampup_pravgfile string rampup_pravg_900.txt
# variable rampup_eqfile string rampup_eq_${tempvar}.txt

# NPT Equilibration run at temperature
reset_timestep 0
variable eqrunl equal 1E4 # Keep > 10000 to avoid crashing fix lines below for time avg output
fix 1 all npt temp ${tempvar} ${tempvar} 0.1 iso 100000 100000 1 drag 1 # npt ensemble molecular dynamics.
fix 1 all npt temp 900 ${tempvar} 0.1 iso 100000 100000 1 drag 1 
fix 1 all npt temp 900 900 0.1 iso 100000 100000 1 drag 1 

fix 2 all ave/time 1 10 10 c_mytemp c_mypress v_vmyvol v_avgEtotal file ${rampup_eqavgfile}
fix 2 all ave/time 1 10 10 c_mytemp c_mypress v_vmyvol v_avgEtotal file rampup_eqavg_900.txt
# print to file average of every 10 steps. Every 10 femptoseconds


# fix 3 all ave/time 1 10000 10000 c_mytemp c_mypress v_vmyvol v_avgEtotal file ${rampup_eqfile}
thermo 1000 # Print every "thermo" timesteps
run ${eqrunl}
run 10000
Per MPI rank memory allocation (min/avg/max) = 3.605 | 3.605 | 3.605 Mbytes
   Step          Time           Temp          PotEng         KinEng         TotEng        c_mytemp      c_mypress        Volume    
         0   0              711.22436     -105.6937       2.8499219     -102.84378      711.22436      96710.836      499.24656    
      1000   1              998.30381     -104.88628      4.0002677     -100.88601      998.30381      104981.76      498.50899    
      2000   2              782.34981     -104.16773      3.1349262     -101.0328       782.34981      105048.78      499.89817    
      3000   3              1004.0327     -105.18519      4.0232238     -101.16196      1004.0327      97424.894      501.41251    
      4000   4              711.91303     -103.91384      2.8526814     -101.06116      711.91303      104584.07      499.97043    
      5000   5              897.06755     -104.59834      3.5946075     -101.00373      897.06755      100946.89      499.95406    
      6000   6              992.79405     -105.0111       3.9781898     -101.03291      992.79405      98154.832      501.20403    
      7000   7              935.54092     -104.81122      3.7487728     -101.06245      935.54092      100027.94      500.04818    
      8000   8              878.87872     -104.60647      3.5217237     -101.08475      878.87872      98533.334      500.7627     
      9000   9              870.83579     -104.54098      3.4894952     -101.05149      870.83579      99394.037      500.62989    
     10000   10             875.88312     -104.4924       3.5097202     -100.98268      875.88312      101120.83      500.2681     
Loop time of 0.878484 on 2 procs for 10000 steps with 32 atoms

Performance: 983.512 ns/day, 0.024 hours/ns, 11383.243 timesteps/s
98.1% CPU use with 2 MPI tasks x 1 OpenMP threads

MPI task timing breakdown:
Section |  min time  |  avg time  |  max time  |%varavg| %total
---------------------------------------------------------------
Pair    | 0.47663    | 0.55976    | 0.64289    |  11.1 | 63.72
Neigh   | 0          | 0          | 0          |   0.0 |  0.00
Comm    | 0.097269   | 0.17908    | 0.2609     |  19.3 | 20.39
Output  | 6.895e-05  | 0.00010675 | 0.00014455 |   0.0 |  0.01
Modify  | 0.13002    | 0.13026    | 0.13049    |   0.1 | 14.83
Other   |            | 0.00928    |            |       |  1.06

Nlocal:             16 ave          19 max          13 min
Histogram: 1 0 0 0 0 0 0 0 0 1
Nghost:            914 ave         917 max         911 min
Histogram: 1 0 0 0 0 0 0 0 0 1
Neighs:         1326.5 ave        1733 max         920 min
Histogram: 1 0 0 0 0 0 0 0 0 1

Total # of neighbors = 2653
Ave neighs/atom = 82.90625
Neighbor list builds = 0
Dangerous builds = 0
unfix 2
# unfix 3

# NPT Production run at temperature
reset_timestep 0
variable prrunl equal 1E4
fix 3 all ave/time 1 10000 10000 c_mytemp c_mypress v_vmyvol v_avgEtotal
fix 4 all ave/time 1 10 10 c_mytemp c_mypress v_vmyvol v_avgEtotal file ${rampup_pravgfile}
fix 4 all ave/time 1 10 10 c_mytemp c_mypress v_vmyvol v_avgEtotal file rampup_pravg_900.txt
# print to file average of every 10 steps. Every 10 femptoseconds

thermo 1000 # Print every "thermo" timesteps
run ${prrunl}
run 10000
Per MPI rank memory allocation (min/avg/max) = 3.605 | 3.605 | 3.605 Mbytes
   Step          Time           Temp          PotEng         KinEng         TotEng        c_mytemp      c_mypress        Volume    
         0   0              875.88312     -104.4924       3.5097202     -100.98268      875.88312      101120.83      500.2681     
      1000   1              805.78957     -104.3992       3.2288508     -101.17035      805.78957      99796.145      500.46103    
      2000   2              927.31822     -104.94924      3.7158239     -101.23342      927.31822      97806.945      502.28674    
      3000   3              823.55193     -104.36875      3.3000257     -101.06873      823.55193      97767.311      501.56818    
      4000   4              915.86851     -104.73456      3.6699442     -101.06461      915.86851      101324.27      499.41261    
      5000   5              850.71992     -104.66371      3.4088896     -101.25482      850.71992      98958.319      501.56541    
      6000   6              1079.405      -105.39238      4.3252455     -101.06714      1079.405       99945.79       500.17957    
      7000   7              783.61237     -104.26208      3.1399853     -101.1221       783.61237      103175.97      500.10746    
      8000   8              960.31322     -104.86439      3.848037      -101.01635      960.31322      98322.114      501.22229    
      9000   9              935.79934     -104.83614      3.7498083     -101.08633      935.79934      99944.667      500.0313     
     10000   10             672.78963     -103.779        2.6959114     -101.08309      672.78963      101517.98      500.58157    
Loop time of 1.05726 on 2 procs for 10000 steps with 32 atoms

Performance: 817.207 ns/day, 0.029 hours/ns, 9458.410 timesteps/s
98.0% CPU use with 2 MPI tasks x 1 OpenMP threads

MPI task timing breakdown:
Section |  min time  |  avg time  |  max time  |%varavg| %total
---------------------------------------------------------------
Pair    | 0.4795     | 0.61106    | 0.74262    |  16.8 | 57.80
Neigh   | 0          | 0          | 0          |   0.0 |  0.00
Comm    | 0.10312    | 0.23295    | 0.36277    |  26.9 | 22.03
Output  | 7.4261e-05 | 0.00011479 | 0.00015532 |   0.0 |  0.01
Modify  | 0.2026     | 0.20305    | 0.2035     |   0.1 | 19.21
Other   |            | 0.01009    |            |       |  0.95

Nlocal:             16 ave          19 max          13 min
Histogram: 1 0 0 0 0 0 0 0 0 1
Nghost:            914 ave         917 max         911 min
Histogram: 1 0 0 0 0 0 0 0 0 1
Neighs:           1307 ave        1855 max         759 min
Histogram: 1 0 0 0 0 0 0 0 0 1

Total # of neighbors = 2614
Ave neighs/atom = 81.6875
Neighbor list builds = 0
Dangerous builds = 0
variable final_temp_avg equal f_3[1]
variable final_press_avg equal f_3[2]
variable final_vol_avg equal f_3[3]
variable final_etot_avg equal f_3[4]

print "${final_temp_avg} ${final_press_avg} ${final_vol_avg} ${final_etot_avg}" append ${prallfile}
print "${final_temp_avg} ${final_press_avg} ${final_vol_avg} ${final_etot_avg}" append prall.txt
899.659620334646 99780.1040532356 500.614754508631 -3.15969217234686

unfix 3
unfix 4
#unfix 1

next i
jump Ramp.txt.in LoopStart
variable i loop ${LoopSize}
variable i loop 21
print " "
 
print "*******LOOP # $i*********"
*******LOOP # 2*********
print " "
 
variable tempvar equal ${TempStep}*${i}+${TempInitial}-${TempStep}
variable tempvar equal 25*${i}+${TempInitial}-${TempStep}
variable tempvar equal 25*2+${TempInitial}-${TempStep}
variable tempvar equal 25*2+900-${TempStep}
variable tempvar equal 25*2+900-25
variable rampup_eqavgfile string rampup_eqavg_${tempvar}.txt
variable rampup_eqavgfile string rampup_eqavg_925.txt
variable rampup_pravgfile string rampup_pravg_${tempvar}.txt
variable rampup_pravgfile string rampup_pravg_925.txt
# variable rampup_eqfile string rampup_eq_${tempvar}.txt

# NPT Equilibration run at temperature
reset_timestep 0
variable eqrunl equal 1E4 # Keep > 10000 to avoid crashing fix lines below for time avg output
fix 1 all npt temp ${tempvar} ${tempvar} 0.1 iso 100000 100000 1 drag 1 # npt ensemble molecular dynamics.
fix 1 all npt temp 925 ${tempvar} 0.1 iso 100000 100000 1 drag 1 
fix 1 all npt temp 925 925 0.1 iso 100000 100000 1 drag 1 

fix 2 all ave/time 1 10 10 c_mytemp c_mypress v_vmyvol v_avgEtotal file ${rampup_eqavgfile}
fix 2 all ave/time 1 10 10 c_mytemp c_mypress v_vmyvol v_avgEtotal file rampup_eqavg_925.txt
# print to file average of every 10 steps. Every 10 femptoseconds


# fix 3 all ave/time 1 10000 10000 c_mytemp c_mypress v_vmyvol v_avgEtotal file ${rampup_eqfile}
thermo 1000 # Print every "thermo" timesteps
run ${eqrunl}
run 10000
Per MPI rank memory allocation (min/avg/max) = 3.605 | 3.605 | 3.605 Mbytes
   Step          Time           Temp          PotEng         KinEng         TotEng        c_mytemp      c_mypress        Volume    
         0   0              672.78963     -103.779        2.6959114     -101.08309      672.78963      101517.98      500.58157    
      1000   1              932.39293     -104.57366      3.7361586     -100.8375       932.39293      100277.08      500.76122    
      2000   2              852.75882     -104.23803      3.4170596     -100.82097      852.75882      100217.04      500.5881     
      3000   3              748.42798     -103.92035      2.9989992     -100.92135      748.42798      100525.23      501.28685    
      4000   4              957.74242     -104.72586      3.8377357     -100.88812      957.74242      99202.689      501.63255    
      5000   5              1012.8193     -104.88181      4.0584321     -100.82338      1012.8193      98555.771      500.5249     
      6000   6              959.71767     -104.70862      3.8456506     -100.86297      959.71767      99277.289      500.80497    
      7000   7              873.23726     -104.40559      3.499118      -100.90647      873.23726      101945.1       501.00918    
      8000   8              905.87906     -104.44438      3.6299158     -100.81446      905.87906      101902.93      500.26892    
      9000   9              952.34689     -104.72932      3.8161154     -100.91321      952.34689      101077.55      500.4543     
     10000   10             916.92789     -104.55527      3.6741892     -100.88108      916.92789      99725.336      501.17971    
Loop time of 0.874017 on 2 procs for 10000 steps with 32 atoms

Performance: 988.539 ns/day, 0.024 hours/ns, 11441.420 timesteps/s
97.8% CPU use with 2 MPI tasks x 1 OpenMP threads

MPI task timing breakdown:
Section |  min time  |  avg time  |  max time  |%varavg| %total
---------------------------------------------------------------
Pair    | 0.55466    | 0.58935    | 0.62405    |   4.5 | 67.43
Neigh   | 0.00017894 | 0.00020353 | 0.00022813 |   0.0 |  0.02
Comm    | 0.10124    | 0.13603    | 0.17083    |   9.4 | 15.56
Output  | 0.00016194 | 0.00023315 | 0.00030436 |   0.0 |  0.03
Modify  | 0.13822    | 0.13885    | 0.13947    |   0.2 | 15.89
Other   |            | 0.00935    |            |       |  1.07

Nlocal:             16 ave          17 max          15 min
Histogram: 1 0 0 0 0 0 0 0 0 1
Nghost:            914 ave         915 max         913 min
Histogram: 1 0 0 0 0 0 0 0 0 1
Neighs:           1313 ave        1448 max        1178 min
Histogram: 1 0 0 0 0 0 0 0 0 1

Total # of neighbors = 2626
Ave neighs/atom = 82.0625
Neighbor list builds = 4
Dangerous builds = 0
unfix 2
# unfix 3

# NPT Production run at temperature
reset_timestep 0
variable prrunl equal 1E4
fix 3 all ave/time 1 10000 10000 c_mytemp c_mypress v_vmyvol v_avgEtotal
fix 4 all ave/time 1 10 10 c_mytemp c_mypress v_vmyvol v_avgEtotal file ${rampup_pravgfile}
fix 4 all ave/time 1 10 10 c_mytemp c_mypress v_vmyvol v_avgEtotal file rampup_pravg_925.txt
# print to file average of every 10 steps. Every 10 femptoseconds

thermo 1000 # Print every "thermo" timesteps
run ${prrunl}
run 10000
Per MPI rank memory allocation (min/avg/max) = 3.605 | 3.605 | 3.605 Mbytes
   Step          Time           Temp          PotEng         KinEng         TotEng        c_mytemp      c_mypress        Volume    
         0   0              916.92789     -104.55527      3.6741892     -100.88108      916.92789      99725.336      501.17971    
      1000   1              870.7802      -104.31678      3.4892724     -100.82751      870.7802       99638.055      501.23622    
      2000   2              1086.851      -105.28576      4.355082      -100.93068      1086.851       96609.553      500.67613    
      3000   3              902.4642      -104.49235      3.6162323     -100.87612      902.4642       98991.355      501.20002    
      4000   4              822.82232     -104.12485      3.2971021     -100.82775      822.82232      102408.42      499.97537    
      5000   5              965.47063     -104.5865       3.8687031     -100.71779      965.47063      106776.14      498.3903     
      6000   6              754.59588     -103.87872      3.0237144     -100.85501      754.59588      101983.89      500.39138    
      7000   7              992.75633     -104.79273      3.9780386     -100.81469      992.75633      99379.941      500.25916    
      8000   8              1084.8716     -105.24528      4.3471505     -100.89813      1084.8716      97257.899      501.22634    
      9000   9              813.58875     -104.12119      3.2601026     -100.86109      813.58875      101549.46      501.21636    
     10000   10             829.40546     -104.27969      3.3234812     -100.95621      829.40546      96055.033      502.61283    
Loop time of 0.952527 on 2 procs for 10000 steps with 32 atoms

Performance: 907.061 ns/day, 0.026 hours/ns, 10498.391 timesteps/s
97.6% CPU use with 2 MPI tasks x 1 OpenMP threads

MPI task timing breakdown:
Section |  min time  |  avg time  |  max time  |%varavg| %total
---------------------------------------------------------------
Pair    | 0.51776    | 0.57951    | 0.64126    |   8.1 | 60.84
Neigh   | 0          | 0          | 0          |   0.0 |  0.00
Comm    | 0.10081    | 0.16186    | 0.2229     |  15.2 | 16.99
Output  | 9.2226e-05 | 0.00013611 | 0.00018    |   0.0 |  0.01
Modify  | 0.20115    | 0.20133    | 0.2015     |   0.0 | 21.14
Other   |            | 0.009695   |            |       |  1.02

Nlocal:             16 ave          17 max          15 min
Histogram: 1 0 0 0 0 0 0 0 0 1
Nghost:            914 ave         915 max         913 min
Histogram: 1 0 0 0 0 0 0 0 0 1
Neighs:           1303 ave        1599 max        1007 min
Histogram: 1 0 0 0 0 0 0 0 0 1

Total # of neighbors = 2606
Ave neighs/atom = 81.4375
Neighbor list builds = 0
Dangerous builds = 0
variable final_temp_avg equal f_3[1]
variable final_press_avg equal f_3[2]
variable final_vol_avg equal f_3[3]
variable final_etot_avg equal f_3[4]

print "${final_temp_avg} ${final_press_avg} ${final_vol_avg} ${final_etot_avg}" append ${prallfile}
print "${final_temp_avg} ${final_press_avg} ${final_vol_avg} ${final_etot_avg}" append prall.txt
924.136903401279 99747.2186360274 500.854991267751 -3.15214172961345

unfix 3
unfix 4
#unfix 1

next i
jump Ramp.txt.in LoopStart
variable i loop ${LoopSize}
variable i loop 21
print " "
 
print "*******LOOP # $i*********"
*******LOOP # 3*********
print " "
 
variable tempvar equal ${TempStep}*${i}+${TempInitial}-${TempStep}
variable tempvar equal 25*${i}+${TempInitial}-${TempStep}
variable tempvar equal 25*3+${TempInitial}-${TempStep}
variable tempvar equal 25*3+900-${TempStep}
variable tempvar equal 25*3+900-25
variable rampup_eqavgfile string rampup_eqavg_${tempvar}.txt
variable rampup_eqavgfile string rampup_eqavg_950.txt
variable rampup_pravgfile string rampup_pravg_${tempvar}.txt
variable rampup_pravgfile string rampup_pravg_950.txt
# variable rampup_eqfile string rampup_eq_${tempvar}.txt

# NPT Equilibration run at temperature
reset_timestep 0
variable eqrunl equal 1E4 # Keep > 10000 to avoid crashing fix lines below for time avg output
fix 1 all npt temp ${tempvar} ${tempvar} 0.1 iso 100000 100000 1 drag 1 # npt ensemble molecular dynamics.
fix 1 all npt temp 950 ${tempvar} 0.1 iso 100000 100000 1 drag 1 
fix 1 all npt temp 950 950 0.1 iso 100000 100000 1 drag 1 

fix 2 all ave/time 1 10 10 c_mytemp c_mypress v_vmyvol v_avgEtotal file ${rampup_eqavgfile}
fix 2 all ave/time 1 10 10 c_mytemp c_mypress v_vmyvol v_avgEtotal file rampup_eqavg_950.txt
# print to file average of every 10 steps. Every 10 femptoseconds


# fix 3 all ave/time 1 10000 10000 c_mytemp c_mypress v_vmyvol v_avgEtotal file ${rampup_eqfile}
thermo 1000 # Print every "thermo" timesteps
run ${eqrunl}
run 10000
Per MPI rank memory allocation (min/avg/max) = 3.605 | 3.605 | 3.605 Mbytes
   Step          Time           Temp          PotEng         KinEng         TotEng        c_mytemp      c_mypress        Volume    
         0   0              829.40546     -104.27969      3.3234812     -100.95621      829.40546      96055.033      502.61283    
      1000   1              896.20764     -104.22164      3.5911618     -100.63048      896.20764      98629.343      502.6469     
      2000   2              940.14595     -104.34206      3.7672255     -100.57483      940.14595      100046.01      501.25524    
      3000   3              897.12739     -104.29124      3.5948473     -100.69639      897.12739      101861.94      500.93114    
      4000   4              935.23425     -104.50006      3.7475439     -100.75251      935.23425      95926.895      503.373      
      5000   5              874.07608     -104.12039      3.5024792     -100.61791      874.07608      101108.74      500.75409    
      6000   6              676.92549     -103.25237      2.7124841     -100.53989      676.92549      101260.06      501.28045    
      7000   7              779.41519     -103.71632      3.1231669     -100.59315      779.41519      104013.78      499.98518    
      8000   8              830.59093     -103.97487      3.3282314     -100.64664      830.59093      102507         501.35282    
      9000   9              809.5499      -103.89333      3.2439186     -100.64942      809.5499       102344.73      501.23123    
     10000   10             886.40887     -104.20124      3.5518975     -100.64934      886.40887      97773.514      502.14431    
Loop time of 0.848748 on 2 procs for 10000 steps with 32 atoms

Performance: 1017.970 ns/day, 0.024 hours/ns, 11782.065 timesteps/s
97.3% CPU use with 2 MPI tasks x 1 OpenMP threads

MPI task timing breakdown:
Section |  min time  |  avg time  |  max time  |%varavg| %total
---------------------------------------------------------------
Pair    | 0.55278    | 0.57447    | 0.59616    |   2.9 | 67.68
Neigh   | 0.00031148 | 0.0003463  | 0.00038112 |   0.0 |  0.04
Comm    | 0.10394    | 0.12609    | 0.14824    |   6.2 | 14.86
Output  | 0.00010479 | 0.00014337 | 0.00018195 |   0.0 |  0.02
Modify  | 0.13778    | 0.13846    | 0.13914    |   0.2 | 16.31
Other   |            | 0.009236   |            |       |  1.09

Nlocal:             16 ave          17 max          15 min
Histogram: 1 0 0 0 0 0 0 0 0 1
Nghost:            914 ave         915 max         913 min
Histogram: 1 0 0 0 0 0 0 0 0 1
Neighs:           1307 ave        1435 max        1179 min
Histogram: 1 0 0 0 0 0 0 0 0 1

Total # of neighbors = 2614
Ave neighs/atom = 81.6875
Neighbor list builds = 7
Dangerous builds = 0
unfix 2
# unfix 3

# NPT Production run at temperature
reset_timestep 0
variable prrunl equal 1E4
fix 3 all ave/time 1 10000 10000 c_mytemp c_mypress v_vmyvol v_avgEtotal
fix 4 all ave/time 1 10 10 c_mytemp c_mypress v_vmyvol v_avgEtotal file ${rampup_pravgfile}
fix 4 all ave/time 1 10 10 c_mytemp c_mypress v_vmyvol v_avgEtotal file rampup_pravg_950.txt
# print to file average of every 10 steps. Every 10 femptoseconds

thermo 1000 # Print every "thermo" timesteps
run ${prrunl}
run 10000
Per MPI rank memory allocation (min/avg/max) = 3.605 | 3.605 | 3.605 Mbytes
   Step          Time           Temp          PotEng         KinEng         TotEng        c_mytemp      c_mypress        Volume    
         0   0              886.40887     -104.20124      3.5518975     -100.64934      886.40887      97773.514      502.14431    
      1000   1              1235.1757     -105.57706      4.9494286     -100.62763      1235.1757      96398.671      502.01821    
      2000   2              1030.8287     -104.83644      4.1305972     -100.70584      1030.8287      97647.367      502.12035    
      3000   3              1079.2545     -104.89834      4.3246425     -100.5737       1079.2545      99209.263      500.58442    
      4000   4              957.70889     -104.50179      3.8376013     -100.66419      957.70889      99856.526      501.57165    
      5000   5              864.31114     -104.18382      3.4633505     -100.72047      864.31114      99877.636      502.04729    
      6000   6              790.85499     -103.87263      3.169007      -100.70363      790.85499      101084.27      500.8181     
      7000   7              1144.4471     -105.30724      4.5858735     -100.72136      1144.4471      94048.859      502.75191    
      8000   8              670.87185     -103.4487       2.6882268     -100.76047      670.87185      98606.933      503.16701    
      9000   9              1028.4695     -104.87724      4.1211435     -100.7561       1028.4695      95120.156      503.38372    
     10000   10             1065.9619     -104.85655      4.2713782     -100.58517      1065.9619      100749.78      500.93652    
Loop time of 0.893472 on 2 procs for 10000 steps with 32 atoms

Performance: 967.014 ns/day, 0.025 hours/ns, 11192.297 timesteps/s
97.8% CPU use with 2 MPI tasks x 1 OpenMP threads

MPI task timing breakdown:
Section |  min time  |  avg time  |  max time  |%varavg| %total
---------------------------------------------------------------
Pair    | 0.54702    | 0.55971    | 0.5724     |   1.7 | 62.64
Neigh   | 0.00013927 | 0.00015078 | 0.00016229 |   0.0 |  0.02
Comm    | 0.1139     | 0.12737    | 0.14083    |   3.8 | 14.26
Output  | 0.00029108 | 0.00029899 | 0.00030691 |   0.0 |  0.03
Modify  | 0.19608    | 0.19692    | 0.19775    |   0.2 | 22.04
Other   |            | 0.009032   |            |       |  1.01

Nlocal:             16 ave          19 max          13 min
Histogram: 1 0 0 0 0 0 0 0 0 1
Nghost:            914 ave         917 max         911 min
Histogram: 1 0 0 0 0 0 0 0 0 1
Neighs:           1307 ave        1353 max        1261 min
Histogram: 1 0 0 0 0 0 0 0 0 1

Total # of neighbors = 2614
Ave neighs/atom = 81.6875
Neighbor list builds = 3
Dangerous builds = 0
variable final_temp_avg equal f_3[1]
variable final_press_avg equal f_3[2]
variable final_vol_avg equal f_3[3]
variable final_etot_avg equal f_3[4]

print "${final_temp_avg} ${final_press_avg} ${final_vol_avg} ${final_etot_avg}" append ${prallfile}
print "${final_temp_avg} ${final_press_avg} ${final_vol_avg} ${final_etot_avg}" append prall.txt
949.559166655764 99740.8719463306 501.455482848524 -3.1454515977076

unfix 3
unfix 4
#unfix 1

next i
jump Ramp.txt.in LoopStart
variable i loop ${LoopSize}
variable i loop 21
print " "
 
print "*******LOOP # $i*********"
*******LOOP # 4*********
print " "
 
variable tempvar equal ${TempStep}*${i}+${TempInitial}-${TempStep}
variable tempvar equal 25*${i}+${TempInitial}-${TempStep}
variable tempvar equal 25*4+${TempInitial}-${TempStep}
variable tempvar equal 25*4+900-${TempStep}
variable tempvar equal 25*4+900-25
variable rampup_eqavgfile string rampup_eqavg_${tempvar}.txt
variable rampup_eqavgfile string rampup_eqavg_975.txt
variable rampup_pravgfile string rampup_pravg_${tempvar}.txt
variable rampup_pravgfile string rampup_pravg_975.txt
# variable rampup_eqfile string rampup_eq_${tempvar}.txt

# NPT Equilibration run at temperature
reset_timestep 0
variable eqrunl equal 1E4 # Keep > 10000 to avoid crashing fix lines below for time avg output
fix 1 all npt temp ${tempvar} ${tempvar} 0.1 iso 100000 100000 1 drag 1 # npt ensemble molecular dynamics.
fix 1 all npt temp 975 ${tempvar} 0.1 iso 100000 100000 1 drag 1 
fix 1 all npt temp 975 975 0.1 iso 100000 100000 1 drag 1 

fix 2 all ave/time 1 10 10 c_mytemp c_mypress v_vmyvol v_avgEtotal file ${rampup_eqavgfile}
fix 2 all ave/time 1 10 10 c_mytemp c_mypress v_vmyvol v_avgEtotal file rampup_eqavg_975.txt
# print to file average of every 10 steps. Every 10 femptoseconds


# fix 3 all ave/time 1 10000 10000 c_mytemp c_mypress v_vmyvol v_avgEtotal file ${rampup_eqfile}
thermo 1000 # Print every "thermo" timesteps
run ${eqrunl}
run 10000
Per MPI rank memory allocation (min/avg/max) = 3.605 | 3.605 | 3.605 Mbytes
   Step          Time           Temp          PotEng         KinEng         TotEng        c_mytemp      c_mypress        Volume    
         0   0              1065.9619     -104.85655      4.2713782     -100.58517      1065.9619      100749.78      500.93652    
      1000   1              967.0557      -104.33184      3.8750546     -100.45679      967.0557       101434.22      501.22503    
      2000   2              931.69948     -104.19178      3.7333799     -100.4584       931.69948      101172.11      502.69929    
      3000   3              1047.9151     -104.73711      4.1990633     -100.53805      1047.9151      100644.13      501.65162    
      4000   4              915.7352      -104.1397       3.66941       -100.47029      915.7352       100498.24      501.08889    
      5000   5              974.02397     -104.4754       3.9029769     -100.57242      974.02397      100772.04      502.26973    
      6000   6              813.65746     -103.81078      3.2603779     -100.5504       813.65746      101390.38      501.77012    
      7000   7              975.04326     -104.24304      3.9070612     -100.33598      975.04326      99948.279      501.58616    
      8000   8              1042.9945     -104.47273      4.1793463     -100.29338      1042.9945      101634.84      500.9615     
      9000   9              862.50179     -103.77921      3.4561003     -100.32311      862.50179      101063.6       501.20982    
     10000   10             1119.763      -104.8609       4.4869627     -100.37394      1119.763       97454.324      501.99111    
Loop time of 0.928429 on 2 procs for 10000 steps with 32 atoms

Performance: 930.604 ns/day, 0.026 hours/ns, 10770.878 timesteps/s
97.7% CPU use with 2 MPI tasks x 1 OpenMP threads

MPI task timing breakdown:
Section |  min time  |  avg time  |  max time  |%varavg| %total
---------------------------------------------------------------
Pair    | 0.50576    | 0.59258    | 0.6794     |  11.3 | 63.83
Neigh   | 8.9479e-05 | 0.0001019  | 0.00011432 |   0.0 |  0.01
Comm    | 0.10199    | 0.1877     | 0.27341    |  19.8 | 20.22
Output  | 7.2494e-05 | 0.00011229 | 0.00015208 |   0.0 |  0.01
Modify  | 0.13796    | 0.13807    | 0.13818    |   0.0 | 14.87
Other   |            | 0.009869   |            |       |  1.06

Nlocal:             16 ave          17 max          15 min
Histogram: 1 0 0 0 0 0 0 0 0 1
Nghost:            914 ave         915 max         913 min
Histogram: 1 0 0 0 0 0 0 0 0 1
Neighs:           1298 ave        1410 max        1186 min
Histogram: 1 0 0 0 0 0 0 0 0 1

Total # of neighbors = 2596
Ave neighs/atom = 81.125
Neighbor list builds = 2
Dangerous builds = 0
unfix 2
# unfix 3

# NPT Production run at temperature
reset_timestep 0
variable prrunl equal 1E4
fix 3 all ave/time 1 10000 10000 c_mytemp c_mypress v_vmyvol v_avgEtotal
fix 4 all ave/time 1 10 10 c_mytemp c_mypress v_vmyvol v_avgEtotal file ${rampup_pravgfile}
fix 4 all ave/time 1 10 10 c_mytemp c_mypress v_vmyvol v_avgEtotal file rampup_pravg_975.txt
# print to file average of every 10 steps. Every 10 femptoseconds

thermo 1000 # Print every "thermo" timesteps
run ${prrunl}
run 10000
Per MPI rank memory allocation (min/avg/max) = 3.605 | 3.605 | 3.605 Mbytes
   Step          Time           Temp          PotEng         KinEng         TotEng        c_mytemp      c_mypress        Volume    
         0   0              1119.763      -104.8609       4.4869627     -100.37394      1119.763       97454.324      501.99111    
      1000   1              1086.8324     -104.84132      4.3550077     -100.48631      1086.8324      96263.501      501.76775    
      2000   2              919.68278     -104.05017      3.6852282     -100.36494      919.68278      101187.92      501.0684     
      3000   3              896.59113     -103.90483      3.5926985     -100.31213      896.59113      101641.89      501.39744    
      4000   4              974.31483     -104.43934      3.9041424     -100.5352       974.31483      99057.89       502.39659    
      5000   5              888.09726     -104.1207       3.558663      -100.56203      888.09726      99370.633      502.11924    
      6000   6              1061.6379     -104.69082      4.2540516     -100.43677      1061.6379      99317.638      502.18055    
      7000   7              939.40679     -104.21695      3.7642636     -100.45269      939.40679      99317.8        500.79581    
      8000   8              885.30332     -103.9526       3.5474675     -100.40514      885.30332      103092.35      501.26739    
      9000   9              1065.6619     -104.74986      4.270176      -100.47969      1065.6619      96392.966      501.50429    
     10000   10             925.77779     -104.06832      3.7096513     -100.35867      925.77779      96769.488      502.42594    
Loop time of 0.91315 on 2 procs for 10000 steps with 32 atoms

Performance: 946.175 ns/day, 0.025 hours/ns, 10951.104 timesteps/s
97.8% CPU use with 2 MPI tasks x 1 OpenMP threads

MPI task timing breakdown:
Section |  min time  |  avg time  |  max time  |%varavg| %total
---------------------------------------------------------------
Pair    | 0.542      | 0.57347    | 0.60493    |   4.2 | 62.80
Neigh   | 0.00014199 | 0.00015784 | 0.00017369 |   0.0 |  0.02
Comm    | 0.099369   | 0.13075    | 0.16213    |   8.7 | 14.32
Output  | 7.0463e-05 | 0.00011011 | 0.00014977 |   0.0 |  0.01
Modify  | 0.19873    | 0.1992     | 0.19968    |   0.1 | 21.82
Other   |            | 0.009459   |            |       |  1.04

Nlocal:             16 ave          18 max          14 min
Histogram: 1 0 0 0 0 0 0 0 0 1
Nghost:            914 ave         916 max         912 min
Histogram: 1 0 0 0 0 0 0 0 0 1
Neighs:         1310.5 ave        1390 max        1231 min
Histogram: 1 0 0 0 0 0 0 0 0 1

Total # of neighbors = 2621
Ave neighs/atom = 81.90625
Neighbor list builds = 3
Dangerous builds = 0
variable final_temp_avg equal f_3[1]
variable final_press_avg equal f_3[2]
variable final_vol_avg equal f_3[3]
variable final_etot_avg equal f_3[4]

print "${final_temp_avg} ${final_press_avg} ${final_vol_avg} ${final_etot_avg}" append ${prallfile}
print "${final_temp_avg} ${final_press_avg} ${final_vol_avg} ${final_etot_avg}" append prall.txt
974.268650479844 99714.7292115542 501.669097958748 -3.13869147028941

unfix 3
unfix 4
#unfix 1

next i
jump Ramp.txt.in LoopStart
variable i loop ${LoopSize}
variable i loop 21
print " "
 
print "*******LOOP # $i*********"
*******LOOP # 5*********
print " "
 
variable tempvar equal ${TempStep}*${i}+${TempInitial}-${TempStep}
variable tempvar equal 25*${i}+${TempInitial}-${TempStep}
variable tempvar equal 25*5+${TempInitial}-${TempStep}
variable tempvar equal 25*5+900-${TempStep}
variable tempvar equal 25*5+900-25
variable rampup_eqavgfile string rampup_eqavg_${tempvar}.txt
variable rampup_eqavgfile string rampup_eqavg_1000.txt
variable rampup_pravgfile string rampup_pravg_${tempvar}.txt
variable rampup_pravgfile string rampup_pravg_1000.txt
# variable rampup_eqfile string rampup_eq_${tempvar}.txt

# NPT Equilibration run at temperature
reset_timestep 0
variable eqrunl equal 1E4 # Keep > 10000 to avoid crashing fix lines below for time avg output
fix 1 all npt temp ${tempvar} ${tempvar} 0.1 iso 100000 100000 1 drag 1 # npt ensemble molecular dynamics.
fix 1 all npt temp 1000 ${tempvar} 0.1 iso 100000 100000 1 drag 1 
fix 1 all npt temp 1000 1000 0.1 iso 100000 100000 1 drag 1 

fix 2 all ave/time 1 10 10 c_mytemp c_mypress v_vmyvol v_avgEtotal file ${rampup_eqavgfile}
fix 2 all ave/time 1 10 10 c_mytemp c_mypress v_vmyvol v_avgEtotal file rampup_eqavg_1000.txt
# print to file average of every 10 steps. Every 10 femptoseconds


# fix 3 all ave/time 1 10000 10000 c_mytemp c_mypress v_vmyvol v_avgEtotal file ${rampup_eqfile}
thermo 1000 # Print every "thermo" timesteps
run ${eqrunl}
run 10000
Per MPI rank memory allocation (min/avg/max) = 3.605 | 3.605 | 3.605 Mbytes
   Step          Time           Temp          PotEng         KinEng         TotEng        c_mytemp      c_mypress        Volume    
         0   0              925.77779     -104.06832      3.7096513     -100.35867      925.77779      96769.488      502.42594    
      1000   1              919.65734     -103.90586      3.6851263     -100.22073      919.65734      101824.29      501.70685    
      2000   2              990.23039     -104.17236      3.9679171     -100.20445      990.23039      103328.34      501.60411    
      3000   3              880.46578     -103.85894      3.5280832     -100.33085      880.46578      101056.44      502.31505    
      4000   4              835.67763     -103.69488      3.3486142     -100.34626      835.67763      100229.76      502.72378    
      5000   5              980.71995     -104.20222      3.9298081     -100.27241      980.71995      99491.618      502.53576    
      6000   6              843.98425     -103.72788      3.3818993     -100.34598      843.98425      99745.028      502.34145    
      7000   7              1112.3292     -104.72819      4.4571748     -100.27101      1112.3292      95092.515      502.96952    
      8000   8              978.59948     -104.30546      3.9213112     -100.38415      978.59948      97018.772      503.90665    
      9000   9              896.169       -103.85793      3.591007      -100.26692      896.169        100038.3       502.29335    
     10000   10             1112.9953     -104.69514      4.4598439     -100.23529      1112.9953      95742.376      503.08948    
Loop time of 0.889602 on 2 procs for 10000 steps with 32 atoms

Performance: 971.221 ns/day, 0.025 hours/ns, 11240.982 timesteps/s
97.6% CPU use with 2 MPI tasks x 1 OpenMP threads

MPI task timing breakdown:
Section |  min time  |  avg time  |  max time  |%varavg| %total
---------------------------------------------------------------
Pair    | 0.55246    | 0.59446    | 0.63646    |   5.4 | 66.82
Neigh   | 8.7165e-05 | 0.00010113 | 0.00011509 |   0.0 |  0.01
Comm    | 0.1032     | 0.14473    | 0.18625    |  10.9 | 16.27
Output  | 7.2667e-05 | 0.00010936 | 0.00014605 |   0.0 |  0.01
Modify  | 0.14027    | 0.14045    | 0.14063    |   0.0 | 15.79
Other   |            | 0.009757   |            |       |  1.10

Nlocal:             16 ave          17 max          15 min
Histogram: 1 0 0 0 0 0 0 0 0 1
Nghost:            914 ave         915 max         913 min
Histogram: 1 0 0 0 0 0 0 0 0 1
Neighs:           1308 ave        1588 max        1028 min
Histogram: 1 0 0 0 0 0 0 0 0 1

Total # of neighbors = 2616
Ave neighs/atom = 81.75
Neighbor list builds = 2
Dangerous builds = 0
unfix 2
# unfix 3

# NPT Production run at temperature
reset_timestep 0
variable prrunl equal 1E4
fix 3 all ave/time 1 10000 10000 c_mytemp c_mypress v_vmyvol v_avgEtotal
fix 4 all ave/time 1 10 10 c_mytemp c_mypress v_vmyvol v_avgEtotal file ${rampup_pravgfile}
fix 4 all ave/time 1 10 10 c_mytemp c_mypress v_vmyvol v_avgEtotal file rampup_pravg_1000.txt
# print to file average of every 10 steps. Every 10 femptoseconds

thermo 1000 # Print every "thermo" timesteps
run ${prrunl}
run 10000
Per MPI rank memory allocation (min/avg/max) = 3.605 | 3.605 | 3.605 Mbytes
   Step          Time           Temp          PotEng         KinEng         TotEng        c_mytemp      c_mypress        Volume    
         0   0              1112.9953     -104.69514      4.4598439     -100.23529      1112.9953      95742.376      503.08948    
      1000   1              994.40686     -104.23297      3.9846524     -100.24832      994.40686      97600.838      502.75319    
      2000   2              1012.9906     -104.30647      4.0591185     -100.24735      1012.9906      95245.57       502.89167    
      3000   3              1180.5246     -104.90474      4.730438      -100.1743       1180.5246      97646.919      501.98049    
      4000   4              1185.7647     -104.79496      4.7514356     -100.04352      1185.7647      102742.07      500.39613    
      5000   5              1082.8917     -104.36249      4.3392168     -100.02327      1082.8917      104628.33      500.33826    
      6000   6              985.77097     -104.03087      3.9500478     -100.08083      985.77097      103064.95      500.22703    
      7000   7              1012.8947     -104.20854      4.0587344     -100.14981      1012.8947      100562.21      500.84658    
      8000   8              957.10569     -104.06792      3.8351842     -100.23273      957.10569      100818.69      501.6716     
      9000   9              844.99882     -103.49724      3.3859648     -100.11128      844.99882      101546.07      501.66582    
     10000   10             904.01284     -103.80664      3.6224378     -100.1842       904.01284      99298.125      502.5617     
Loop time of 0.950267 on 2 procs for 10000 steps with 32 atoms

Performance: 909.218 ns/day, 0.026 hours/ns, 10523.355 timesteps/s
97.7% CPU use with 2 MPI tasks x 1 OpenMP threads

MPI task timing breakdown:
Section |  min time  |  avg time  |  max time  |%varavg| %total
---------------------------------------------------------------
Pair    | 0.5205     | 0.57598    | 0.63146    |   7.3 | 60.61
Neigh   | 0.00031955 | 0.00035022 | 0.0003809  |   0.0 |  0.04
Comm    | 0.11041    | 0.16572    | 0.22104    |  13.6 | 17.44
Output  | 0.00015764 | 0.00020946 | 0.00026128 |   0.0 |  0.02
Modify  | 0.19779    | 0.19844    | 0.19908    |   0.1 | 20.88
Other   |            | 0.009566   |            |       |  1.01

Nlocal:             16 ave          17 max          15 min
Histogram: 1 0 0 0 0 0 0 0 0 1
Nghost:            914 ave         915 max         913 min
Histogram: 1 0 0 0 0 0 0 0 0 1
Neighs:         1294.5 ave        1595 max         994 min
Histogram: 1 0 0 0 0 0 0 0 0 1

Total # of neighbors = 2589
Ave neighs/atom = 80.90625
Neighbor list builds = 7
Dangerous builds = 0
variable final_temp_avg equal f_3[1]
variable final_press_avg equal f_3[2]
variable final_vol_avg equal f_3[3]
variable final_etot_avg equal f_3[4]

print "${final_temp_avg} ${final_press_avg} ${final_vol_avg} ${final_etot_avg}" append ${prallfile}
print "${final_temp_avg} ${final_press_avg} ${final_vol_avg} ${final_etot_avg}" append prall.txt
999.406379529057 99728.3647906517 502.05592425655 -3.13294746115808

unfix 3
unfix 4
#unfix 1

next i
jump Ramp.txt.in LoopStart
variable i loop ${LoopSize}
variable i loop 21
print " "
 
print "*******LOOP # $i*********"
*******LOOP # 6*********
print " "
 
variable tempvar equal ${TempStep}*${i}+${TempInitial}-${TempStep}
variable tempvar equal 25*${i}+${TempInitial}-${TempStep}
variable tempvar equal 25*6+${TempInitial}-${TempStep}
variable tempvar equal 25*6+900-${TempStep}
variable tempvar equal 25*6+900-25
variable rampup_eqavgfile string rampup_eqavg_${tempvar}.txt
variable rampup_eqavgfile string rampup_eqavg_1025.txt
variable rampup_pravgfile string rampup_pravg_${tempvar}.txt
variable rampup_pravgfile string rampup_pravg_1025.txt
# variable rampup_eqfile string rampup_eq_${tempvar}.txt

# NPT Equilibration run at temperature
reset_timestep 0
variable eqrunl equal 1E4 # Keep > 10000 to avoid crashing fix lines below for time avg output
fix 1 all npt temp ${tempvar} ${tempvar} 0.1 iso 100000 100000 1 drag 1 # npt ensemble molecular dynamics.
fix 1 all npt temp 1025 ${tempvar} 0.1 iso 100000 100000 1 drag 1 
fix 1 all npt temp 1025 1025 0.1 iso 100000 100000 1 drag 1 

fix 2 all ave/time 1 10 10 c_mytemp c_mypress v_vmyvol v_avgEtotal file ${rampup_eqavgfile}
fix 2 all ave/time 1 10 10 c_mytemp c_mypress v_vmyvol v_avgEtotal file rampup_eqavg_1025.txt
# print to file average of every 10 steps. Every 10 femptoseconds


# fix 3 all ave/time 1 10000 10000 c_mytemp c_mypress v_vmyvol v_avgEtotal file ${rampup_eqfile}
thermo 1000 # Print every "thermo" timesteps
run ${eqrunl}
run 10000
Per MPI rank memory allocation (min/avg/max) = 3.605 | 3.605 | 3.605 Mbytes
   Step          Time           Temp          PotEng         KinEng         TotEng        c_mytemp      c_mypress        Volume    
         0   0              904.01284     -103.80664      3.6224378     -100.1842       904.01284      99298.125      502.5617     
      1000   1              1024.7205     -104.19623      4.106121      -100.09011      1024.7205      101698.75      501.97263    
      2000   2              875.59005     -103.73047      3.5085458     -100.22192      875.59005      102493.21      502.69204    
      3000   3              950.5322      -103.72845      3.8088438     -99.919608      950.5322       100809.87      502.36002    
      4000   4              893.0877      -103.63811      3.57866       -100.05945      893.0877       101685.18      502.6223     
      5000   5              1036.9475     -104.22971      4.1551154     -100.0746       1036.9475      98328.478      503.27405    
      6000   6              1108.852      -104.47557      4.4432414     -100.03232      1108.852       98489.126      502.73391    
      7000   7              988.56071     -103.9123       3.9612265     -99.951074      988.56071      100830.4       502.72092    
      8000   8              1082.5843     -104.39055      4.3379852     -100.05257      1082.5843      96324.546      502.77537    
      9000   9              1179.6131     -104.62582      4.7267858     -99.89903       1179.6131      97883.916      503.35396    
     10000   10             1163.5626     -104.52268      4.6624705     -99.86021       1163.5626      99438.266      501.69698    
Loop time of 0.880525 on 2 procs for 10000 steps with 32 atoms

Performance: 981.233 ns/day, 0.024 hours/ns, 11356.859 timesteps/s
98.0% CPU use with 2 MPI tasks x 1 OpenMP threads

MPI task timing breakdown:
Section |  min time  |  avg time  |  max time  |%varavg| %total
---------------------------------------------------------------
Pair    | 0.5259     | 0.57995    | 0.634      |   7.1 | 65.86
Neigh   | 0.00010368 | 0.00011689 | 0.0001301  |   0.0 |  0.01
Comm    | 0.10097    | 0.15483    | 0.20868    |  13.7 | 17.58
Output  | 7.5334e-05 | 0.00011206 | 0.00014879 |   0.0 |  0.01
Modify  | 0.13587    | 0.13621    | 0.13655    |   0.1 | 15.47
Other   |            | 0.009314   |            |       |  1.06

Nlocal:             16 ave          16 max          16 min
Histogram: 2 0 0 0 0 0 0 0 0 0
Nghost:            914 ave         914 max         914 min
Histogram: 2 0 0 0 0 0 0 0 0 0
Neighs:         1306.5 ave        1567 max        1046 min
Histogram: 1 0 0 0 0 0 0 0 0 1

Total # of neighbors = 2613
Ave neighs/atom = 81.65625
Neighbor list builds = 2
Dangerous builds = 0
unfix 2
# unfix 3

# NPT Production run at temperature
reset_timestep 0
variable prrunl equal 1E4
fix 3 all ave/time 1 10000 10000 c_mytemp c_mypress v_vmyvol v_avgEtotal
fix 4 all ave/time 1 10 10 c_mytemp c_mypress v_vmyvol v_avgEtotal file ${rampup_pravgfile}
fix 4 all ave/time 1 10 10 c_mytemp c_mypress v_vmyvol v_avgEtotal file rampup_pravg_1025.txt
# print to file average of every 10 steps. Every 10 femptoseconds

thermo 1000 # Print every "thermo" timesteps
run ${prrunl}
run 10000
Per MPI rank memory allocation (min/avg/max) = 3.605 | 3.605 | 3.605 Mbytes
   Step          Time           Temp          PotEng         KinEng         TotEng        c_mytemp      c_mypress        Volume    
         0   0              1163.5626     -104.52268      4.6624705     -99.86021       1163.5626      99438.266      501.69698    
      1000   1              764.46159     -103.25861      3.0632469     -100.19537      764.46159      100626.54      503.88952    
      2000   2              1065.2205     -104.41522      4.2684072     -100.14681      1065.2205      98174.975      503.57468    
      3000   3              1061.3335     -104.2295       4.2528318     -99.976668      1061.3335      102624.18      502.37298    
      4000   4              1069.0003     -104.19531      4.2835532     -99.911756      1069.0003      99652.021      501.59795    
      5000   5              868.99911     -103.52272      3.4821355     -100.04059      868.99911      107611.79      501.41655    
      6000   6              883.59556     -103.47126      3.5406244     -99.930632      883.59556      104074.05      502.42369    
      7000   7              999.24632     -103.93734      4.0040445     -99.9333        999.24632      101142.71      501.82816    
      8000   8              978.0701      -104.02842      3.91919       -100.10923      978.0701       97176.207      503.98718    
      9000   9              1043.1455     -104.17688      4.1799513     -99.996926      1043.1455      95138.969      503.92627    
     10000   10             934.42218     -103.734        3.7442899     -99.989714      934.42218      101346.82      501.97498    
Loop time of 0.920186 on 2 procs for 10000 steps with 32 atoms

Performance: 938.941 ns/day, 0.026 hours/ns, 10867.369 timesteps/s
98.3% CPU use with 2 MPI tasks x 1 OpenMP threads

MPI task timing breakdown:
Section |  min time  |  avg time  |  max time  |%varavg| %total
---------------------------------------------------------------
Pair    | 0.50101    | 0.56213    | 0.62325    |   8.2 | 61.09
Neigh   | 0.00036437 | 0.00041728 | 0.00047019 |   0.0 |  0.05
Comm    | 0.096526   | 0.15731    | 0.21809    |  15.3 | 17.10
Output  | 6.9018e-05 | 0.00010743 | 0.00014585 |   0.0 |  0.01
Modify  | 0.19112    | 0.19128    | 0.19144    |   0.0 | 20.79
Other   |            | 0.008943   |            |       |  0.97

Nlocal:             16 ave          16 max          16 min
Histogram: 2 0 0 0 0 0 0 0 0 0
Nghost:            914 ave         914 max         914 min
Histogram: 2 0 0 0 0 0 0 0 0 0
Neighs:           1303 ave        1559 max        1047 min
Histogram: 1 0 0 0 0 0 0 0 0 1

Total # of neighbors = 2606
Ave neighs/atom = 81.4375
Neighbor list builds = 9
Dangerous builds = 0
variable final_temp_avg equal f_3[1]
variable final_press_avg equal f_3[2]
variable final_vol_avg equal f_3[3]
variable final_etot_avg equal f_3[4]

print "${final_temp_avg} ${final_press_avg} ${final_vol_avg} ${final_etot_avg}" append ${prallfile}
print "${final_temp_avg} ${final_press_avg} ${final_vol_avg} ${final_etot_avg}" append prall.txt
1024.59471766 99741.1017492878 502.670484943596 -3.12601269208398

unfix 3
unfix 4
#unfix 1

next i
jump Ramp.txt.in LoopStart
variable i loop ${LoopSize}
variable i loop 21
print " "
 
print "*******LOOP # $i*********"
*******LOOP # 7*********
print " "
 
variable tempvar equal ${TempStep}*${i}+${TempInitial}-${TempStep}
variable tempvar equal 25*${i}+${TempInitial}-${TempStep}
variable tempvar equal 25*7+${TempInitial}-${TempStep}
variable tempvar equal 25*7+900-${TempStep}
variable tempvar equal 25*7+900-25
variable rampup_eqavgfile string rampup_eqavg_${tempvar}.txt
variable rampup_eqavgfile string rampup_eqavg_1050.txt
variable rampup_pravgfile string rampup_pravg_${tempvar}.txt
variable rampup_pravgfile string rampup_pravg_1050.txt
# variable rampup_eqfile string rampup_eq_${tempvar}.txt

# NPT Equilibration run at temperature
reset_timestep 0
variable eqrunl equal 1E4 # Keep > 10000 to avoid crashing fix lines below for time avg output
fix 1 all npt temp ${tempvar} ${tempvar} 0.1 iso 100000 100000 1 drag 1 # npt ensemble molecular dynamics.
fix 1 all npt temp 1050 ${tempvar} 0.1 iso 100000 100000 1 drag 1 
fix 1 all npt temp 1050 1050 0.1 iso 100000 100000 1 drag 1 

fix 2 all ave/time 1 10 10 c_mytemp c_mypress v_vmyvol v_avgEtotal file ${rampup_eqavgfile}
fix 2 all ave/time 1 10 10 c_mytemp c_mypress v_vmyvol v_avgEtotal file rampup_eqavg_1050.txt
# print to file average of every 10 steps. Every 10 femptoseconds


# fix 3 all ave/time 1 10000 10000 c_mytemp c_mypress v_vmyvol v_avgEtotal file ${rampup_eqfile}
thermo 1000 # Print every "thermo" timesteps
run ${eqrunl}
run 10000
Per MPI rank memory allocation (min/avg/max) = 3.605 | 3.605 | 3.605 Mbytes
   Step          Time           Temp          PotEng         KinEng         TotEng        c_mytemp      c_mypress        Volume    
         0   0              934.42218     -103.734        3.7442899     -99.989714      934.42218      101346.82      501.97498    
      1000   1              1290.7897     -104.79103      5.1722777     -99.618751      1290.7897      102492.05      501.29245    
      2000   2              925.64617     -103.49157      3.7091239     -99.782441      925.64617      103281.54      501.68694    
      3000   3              1037.021      -104.0308       4.15541       -99.875392      1037.021       102674.9       501.38052    
      4000   4              1202.3894     -104.41902      4.818052      -99.600968      1202.3894      103155.37      500.9198     
      5000   5              1129.7088     -104.13764      4.5268158     -99.610829      1129.7088      103439.05      501.6952     
      6000   6              1010.4437     -103.92889      4.0489131     -99.879976      1010.4437      101453.92      502.88151    
      7000   7              1041.5761     -104.09309      4.1736627     -99.919428      1041.5761      99070.608      504.12675    
      8000   8              1099.0712     -104.36323      4.4040493     -99.95918       1099.0712      96782.173      503.40375    
      9000   9              994.01314     -103.8429       3.9830748     -99.859829      994.01314      97554.012      503.93244    
     10000   10             1074.4731     -104.07951      4.3054831     -99.77403       1074.4731      100921.33      503.23106    
Loop time of 0.928989 on 2 procs for 10000 steps with 32 atoms

Performance: 930.043 ns/day, 0.026 hours/ns, 10764.386 timesteps/s
97.6% CPU use with 2 MPI tasks x 1 OpenMP threads

MPI task timing breakdown:
Section |  min time  |  avg time  |  max time  |%varavg| %total
---------------------------------------------------------------
Pair    | 0.54581    | 0.60433    | 0.66286    |   7.5 | 65.05
Neigh   | 0.00017787 | 0.00020373 | 0.00022959 |   0.0 |  0.02
Comm    | 0.11234    | 0.17058    | 0.22882    |  14.1 | 18.36
Output  | 0.00015778 | 0.00021635 | 0.00027492 |   0.0 |  0.02
Modify  | 0.14334    | 0.14369    | 0.14404    |   0.1 | 15.47
Other   |            | 0.009966   |            |       |  1.07

Nlocal:             16 ave          19 max          13 min
Histogram: 1 0 0 0 0 0 0 0 0 1
Nghost:            914 ave         917 max         911 min
Histogram: 1 0 0 0 0 0 0 0 0 1
Neighs:           1302 ave        1790 max         814 min
Histogram: 1 0 0 0 0 0 0 0 0 1

Total # of neighbors = 2604
Ave neighs/atom = 81.375
Neighbor list builds = 4
Dangerous builds = 0
unfix 2
# unfix 3

# NPT Production run at temperature
reset_timestep 0
variable prrunl equal 1E4
fix 3 all ave/time 1 10000 10000 c_mytemp c_mypress v_vmyvol v_avgEtotal
fix 4 all ave/time 1 10 10 c_mytemp c_mypress v_vmyvol v_avgEtotal file ${rampup_pravgfile}
fix 4 all ave/time 1 10 10 c_mytemp c_mypress v_vmyvol v_avgEtotal file rampup_pravg_1050.txt
# print to file average of every 10 steps. Every 10 femptoseconds

thermo 1000 # Print every "thermo" timesteps
run ${prrunl}
run 10000
Per MPI rank memory allocation (min/avg/max) = 3.605 | 3.605 | 3.605 Mbytes
   Step          Time           Temp          PotEng         KinEng         TotEng        c_mytemp      c_mypress        Volume    
         0   0              1074.4731     -104.07951      4.3054831     -99.77403       1074.4731      100921.33      503.23106    
      1000   1              823.32199     -103.1268       3.2991043     -99.827694      823.32199      103779.37      502.79754    
      2000   2              1073.4862     -104.16764      4.3015283     -99.866108      1073.4862      99604.99       501.50109    
      3000   3              1064.7243     -104.01859      4.2664191     -99.752169      1064.7243      99964.463      502.54459    
      4000   4              1084.7599     -104.06752      4.3467029     -99.720817      1084.7599      104577.28      502.04006    
      5000   5              1062.7578     -104.02784      4.2585392     -99.769297      1062.7578      100977.18      502.75579    
      6000   6              1052.9199     -103.8476       4.2191179     -99.628485      1052.9199      100411.54      501.96718    
      7000   7              894.47206     -103.42743      3.5842072     -99.843219      894.47206      103242.55      503.91405    
      8000   8              945.29966     -103.61678      3.7878767     -99.8289        945.29966      97161.53       504.9201     
      9000   9              1047.1047     -104.08732      4.195816      -99.891502      1047.1047      97881.569      504.34143    
     10000   10             1172.4786     -104.4816       4.6981974     -99.7834        1172.4786      95507.751      503.59872    
Loop time of 0.95558 on 2 procs for 10000 steps with 32 atoms

Performance: 904.163 ns/day, 0.027 hours/ns, 10464.853 timesteps/s
97.4% CPU use with 2 MPI tasks x 1 OpenMP threads

MPI task timing breakdown:
Section |  min time  |  avg time  |  max time  |%varavg| %total
---------------------------------------------------------------
Pair    | 0.53032    | 0.58479    | 0.63925    |   7.1 | 61.20
Neigh   | 0.00034158 | 0.00039124 | 0.0004409  |   0.0 |  0.04
Comm    | 0.10322    | 0.15733    | 0.21144    |  13.6 | 16.46
Output  | 7.3587e-05 | 0.00011423 | 0.00015487 |   0.0 |  0.01
Modify  | 0.20319    | 0.20333    | 0.20347    |   0.0 | 21.28
Other   |            | 0.009627   |            |       |  1.01

Nlocal:             16 ave          18 max          14 min
Histogram: 1 0 0 0 0 0 0 0 0 1
Nghost:            914 ave         916 max         912 min
Histogram: 1 0 0 0 0 0 0 0 0 1
Neighs:           1295 ave        1688 max         902 min
Histogram: 1 0 0 0 0 0 0 0 0 1

Total # of neighbors = 2590
Ave neighs/atom = 80.9375
Neighbor list builds = 8
Dangerous builds = 0
variable final_temp_avg equal f_3[1]
variable final_press_avg equal f_3[2]
variable final_vol_avg equal f_3[3]
variable final_etot_avg equal f_3[4]

print "${final_temp_avg} ${final_press_avg} ${final_vol_avg} ${final_etot_avg}" append ${prallfile}
print "${final_temp_avg} ${final_press_avg} ${final_vol_avg} ${final_etot_avg}" append prall.txt
1048.98075260462 99717.2813136889 503.001314466227 -3.11928794816603

unfix 3
unfix 4
#unfix 1

next i
jump Ramp.txt.in LoopStart
variable i loop ${LoopSize}
variable i loop 21
print " "
 
print "*******LOOP # $i*********"
*******LOOP # 8*********
print " "
 
variable tempvar equal ${TempStep}*${i}+${TempInitial}-${TempStep}
variable tempvar equal 25*${i}+${TempInitial}-${TempStep}
variable tempvar equal 25*8+${TempInitial}-${TempStep}
variable tempvar equal 25*8+900-${TempStep}
variable tempvar equal 25*8+900-25
variable rampup_eqavgfile string rampup_eqavg_${tempvar}.txt
variable rampup_eqavgfile string rampup_eqavg_1075.txt
variable rampup_pravgfile string rampup_pravg_${tempvar}.txt
variable rampup_pravgfile string rampup_pravg_1075.txt
# variable rampup_eqfile string rampup_eq_${tempvar}.txt

# NPT Equilibration run at temperature
reset_timestep 0
variable eqrunl equal 1E4 # Keep > 10000 to avoid crashing fix lines below for time avg output
fix 1 all npt temp ${tempvar} ${tempvar} 0.1 iso 100000 100000 1 drag 1 # npt ensemble molecular dynamics.
fix 1 all npt temp 1075 ${tempvar} 0.1 iso 100000 100000 1 drag 1 
fix 1 all npt temp 1075 1075 0.1 iso 100000 100000 1 drag 1 

fix 2 all ave/time 1 10 10 c_mytemp c_mypress v_vmyvol v_avgEtotal file ${rampup_eqavgfile}
fix 2 all ave/time 1 10 10 c_mytemp c_mypress v_vmyvol v_avgEtotal file rampup_eqavg_1075.txt
# print to file average of every 10 steps. Every 10 femptoseconds


# fix 3 all ave/time 1 10000 10000 c_mytemp c_mypress v_vmyvol v_avgEtotal file ${rampup_eqfile}
thermo 1000 # Print every "thermo" timesteps
run ${eqrunl}
run 10000
Per MPI rank memory allocation (min/avg/max) = 3.605 | 3.605 | 3.605 Mbytes
   Step          Time           Temp          PotEng         KinEng         TotEng        c_mytemp      c_mypress        Volume    
         0   0              1172.4786     -104.4816       4.6981974     -99.7834        1172.4786      95507.751      503.59872    
      1000   1              1006.4932     -103.65557      4.0330834     -99.622486      1006.4932      102322.59      503.67491    
      2000   2              1148.6153     -104.10653      4.6025757     -99.503955      1148.6153      97170.422      504.32804    
      3000   3              1260.2605     -104.61785      5.0499451     -99.567908      1260.2605      97629.071      504.23005    
      4000   4              983.2483      -103.5846       3.9399394     -99.64466       983.2483       103700.22      503.50622    
      5000   5              1057.0828     -103.72796      4.2357991     -99.49216       1057.0828      100009.01      503.64133    
      6000   6              956.53766     -103.3034       3.8329081     -99.470495      956.53766      103267.8       502.24312    
      7000   7              1019.7204     -103.72921      4.0860853     -99.643125      1019.7204      102778.87      502.37219    
      8000   8              928.16053     -103.21677      3.7191991     -99.497572      928.16053      101789.62      502.91402    
      9000   9              1104.6422     -104.07931      4.4263725     -99.652934      1104.6422      100141.83      503.15054    
     10000   10             1248.3563     -104.60752      5.0022441     -99.605276      1248.3563      96847.315      503.72912    
Loop time of 0.907738 on 2 procs for 10000 steps with 32 atoms

Performance: 951.817 ns/day, 0.025 hours/ns, 11016.396 timesteps/s
97.7% CPU use with 2 MPI tasks x 1 OpenMP threads

MPI task timing breakdown:
Section |  min time  |  avg time  |  max time  |%varavg| %total
---------------------------------------------------------------
Pair    | 0.52669    | 0.59073    | 0.65477    |   8.3 | 65.08
Neigh   | 0.00031838 | 0.00036738 | 0.00041638 |   0.0 |  0.04
Comm    | 0.1045     | 0.16786    | 0.23122    |  15.5 | 18.49
Output  | 0.00010784 | 0.0001448  | 0.00018176 |   0.0 |  0.02
Modify  | 0.13889    | 0.1389     | 0.13892    |   0.0 | 15.30
Other   |            | 0.009734   |            |       |  1.07

Nlocal:             16 ave          21 max          11 min
Histogram: 1 0 0 0 0 0 0 0 0 1
Nghost:            914 ave         919 max         909 min
Histogram: 1 0 0 0 0 0 0 0 0 1
Neighs:           1306 ave        1862 max         750 min
Histogram: 1 0 0 0 0 0 0 0 0 1

Total # of neighbors = 2612
Ave neighs/atom = 81.625
Neighbor list builds = 8
Dangerous builds = 0
unfix 2
# unfix 3

# NPT Production run at temperature
reset_timestep 0
variable prrunl equal 1E4
fix 3 all ave/time 1 10000 10000 c_mytemp c_mypress v_vmyvol v_avgEtotal
fix 4 all ave/time 1 10 10 c_mytemp c_mypress v_vmyvol v_avgEtotal file ${rampup_pravgfile}
fix 4 all ave/time 1 10 10 c_mytemp c_mypress v_vmyvol v_avgEtotal file rampup_pravg_1075.txt
# print to file average of every 10 steps. Every 10 femptoseconds

thermo 1000 # Print every "thermo" timesteps
run ${prrunl}
run 10000
Per MPI rank memory allocation (min/avg/max) = 3.605 | 3.605 | 3.605 Mbytes
   Step          Time           Temp          PotEng         KinEng         TotEng        c_mytemp      c_mypress        Volume    
         0   0              1248.3563     -104.60752      5.0022441     -99.605276      1248.3563      96847.315      503.72912    
      1000   1              992.98487     -103.53676      3.9789544     -99.557802      992.98487      98501.672      503.26133    
      2000   2              1127.7807     -104.10736      4.5190899     -99.588274      1127.7807      98919.961      502.82435    
      3000   3              1149.7273     -104.16969      4.6070316     -99.562654      1149.7273      99513.859      503.57518    
      4000   4              1153.112      -104.14009      4.6205941     -99.519492      1153.112       100034.79      502.72506    
      5000   5              1184.6851     -104.3184       4.7471094     -99.571292      1184.6851      99718.813      502.9164     
      6000   6              1011.9653     -103.84468      4.0550101     -99.789673      1011.9653      99984.032      504.49875    
      7000   7              1097.6992     -104.08236      4.3985515     -99.68381       1097.6992      98061.878      504.59758    
      8000   8              1232.712      -104.62862      4.9395565     -99.689063      1232.712       92773.162      504.36099    
      9000   9              1014.2925     -103.66339      4.0643356     -99.599056      1014.2925      99046.588      503.69956    
     10000   10             927.51253     -103.2428       3.7166025     -99.526195      927.51253      100882.06      503.13917    
Loop time of 0.948267 on 2 procs for 10000 steps with 32 atoms

Performance: 911.136 ns/day, 0.026 hours/ns, 10545.557 timesteps/s
98.0% CPU use with 2 MPI tasks x 1 OpenMP threads

MPI task timing breakdown:
Section |  min time  |  avg time  |  max time  |%varavg| %total
---------------------------------------------------------------
Pair    | 0.53394    | 0.58337    | 0.63281    |   6.5 | 61.52
Neigh   | 0.00031647 | 0.00035701 | 0.00039755 |   0.0 |  0.04
Comm    | 0.10471    | 0.15411    | 0.20351    |  12.6 | 16.25
Output  | 0.00015738 | 0.0002132  | 0.00026902 |   0.0 |  0.02
Modify  | 0.2002     | 0.20085    | 0.2015     |   0.1 | 21.18
Other   |            | 0.00936    |            |       |  0.99

Nlocal:             16 ave          16 max          16 min
Histogram: 2 0 0 0 0 0 0 0 0 0
Nghost:            914 ave         914 max         914 min
Histogram: 2 0 0 0 0 0 0 0 0 0
Neighs:         1298.5 ave        1522 max        1075 min
Histogram: 1 0 0 0 0 0 0 0 0 1

Total # of neighbors = 2597
Ave neighs/atom = 81.15625
Neighbor list builds = 7
Dangerous builds = 0
variable final_temp_avg equal f_3[1]
variable final_press_avg equal f_3[2]
variable final_vol_avg equal f_3[3]
variable final_etot_avg equal f_3[4]

print "${final_temp_avg} ${final_press_avg} ${final_vol_avg} ${final_etot_avg}" append ${prallfile}
print "${final_temp_avg} ${final_press_avg} ${final_vol_avg} ${final_etot_avg}" append prall.txt
1074.07647867859 99735.4284618094 503.334878939737 -3.11319439400408

unfix 3
unfix 4
#unfix 1

next i
jump Ramp.txt.in LoopStart
variable i loop ${LoopSize}
variable i loop 21
print " "
 
print "*******LOOP # $i*********"
*******LOOP # 9*********
print " "
 
variable tempvar equal ${TempStep}*${i}+${TempInitial}-${TempStep}
variable tempvar equal 25*${i}+${TempInitial}-${TempStep}
variable tempvar equal 25*9+${TempInitial}-${TempStep}
variable tempvar equal 25*9+900-${TempStep}
variable tempvar equal 25*9+900-25
variable rampup_eqavgfile string rampup_eqavg_${tempvar}.txt
variable rampup_eqavgfile string rampup_eqavg_1100.txt
variable rampup_pravgfile string rampup_pravg_${tempvar}.txt
variable rampup_pravgfile string rampup_pravg_1100.txt
# variable rampup_eqfile string rampup_eq_${tempvar}.txt

# NPT Equilibration run at temperature
reset_timestep 0
variable eqrunl equal 1E4 # Keep > 10000 to avoid crashing fix lines below for time avg output
fix 1 all npt temp ${tempvar} ${tempvar} 0.1 iso 100000 100000 1 drag 1 # npt ensemble molecular dynamics.
fix 1 all npt temp 1100 ${tempvar} 0.1 iso 100000 100000 1 drag 1 
fix 1 all npt temp 1100 1100 0.1 iso 100000 100000 1 drag 1 

fix 2 all ave/time 1 10 10 c_mytemp c_mypress v_vmyvol v_avgEtotal file ${rampup_eqavgfile}
fix 2 all ave/time 1 10 10 c_mytemp c_mypress v_vmyvol v_avgEtotal file rampup_eqavg_1100.txt
# print to file average of every 10 steps. Every 10 femptoseconds


# fix 3 all ave/time 1 10000 10000 c_mytemp c_mypress v_vmyvol v_avgEtotal file ${rampup_eqfile}
thermo 1000 # Print every "thermo" timesteps
run ${eqrunl}
run 10000
Per MPI rank memory allocation (min/avg/max) = 3.605 | 3.605 | 3.605 Mbytes
   Step          Time           Temp          PotEng         KinEng         TotEng        c_mytemp      c_mypress        Volume    
         0   0              927.51253     -103.2428       3.7166025     -99.526195      927.51253      100882.06      503.13917    
      1000   1              1150.4992     -103.86313      4.6101247     -99.253005      1150.4992      103099.77      502.5551     
      2000   2              979.3464      -103.38547      3.9243042     -99.461168      979.3464       98635.732      504.46771    
      3000   3              1084.6251     -103.76988      4.3461625     -99.423715      1084.6251      99261.501      503.84823    
      4000   4              1200.6399     -104.02256      4.8110416     -99.211522      1200.6399      98709.104      504.32561    
      5000   5              1219.905      -104.11089      4.888238      -99.222654      1219.905       102325.44      501.86183    
      6000   6              1013.9615     -103.5149       4.063009      -99.451894      1013.9615      100530.78      503.70066    
      7000   7              1001.9817     -103.49937      4.0150054     -99.484366      1001.9817      99867.436      502.9957     
      8000   8              1199.83       -104.23931      4.8077963     -99.431518      1199.83        99170.729      503.68647    
      9000   9              943.43217     -103.10611      3.7803936     -99.325719      943.43217      100608.93      504.25231    
     10000   10             1021.3144     -103.59141      4.0924726     -99.49894       1021.3144      100109.22      504.04164    
Loop time of 0.881751 on 2 procs for 10000 steps with 32 atoms

Performance: 979.868 ns/day, 0.024 hours/ns, 11341.070 timesteps/s
98.2% CPU use with 2 MPI tasks x 1 OpenMP threads

MPI task timing breakdown:
Section |  min time  |  avg time  |  max time  |%varavg| %total
---------------------------------------------------------------
Pair    | 0.50497    | 0.56966    | 0.63435    |   8.6 | 64.61
Neigh   | 0.00097013 | 0.0011126  | 0.0012551  |   0.4 |  0.13
Comm    | 0.10242    | 0.1668     | 0.23118    |  15.8 | 18.92
Output  | 0.00016239 | 0.00022298 | 0.00028358 |   0.0 |  0.03
Modify  | 0.13407    | 0.13425    | 0.13443    |   0.0 | 15.22
Other   |            | 0.009701   |            |       |  1.10

Nlocal:             16 ave          17 max          15 min
Histogram: 1 0 0 0 0 0 0 0 0 1
Nghost:            914 ave         915 max         913 min
Histogram: 1 0 0 0 0 0 0 0 0 1
Neighs:           1297 ave        1438 max        1156 min
Histogram: 1 0 0 0 0 0 0 0 0 1

Total # of neighbors = 2594
Ave neighs/atom = 81.0625
Neighbor list builds = 23
Dangerous builds = 0
unfix 2
# unfix 3

# NPT Production run at temperature
reset_timestep 0
variable prrunl equal 1E4
fix 3 all ave/time 1 10000 10000 c_mytemp c_mypress v_vmyvol v_avgEtotal
fix 4 all ave/time 1 10 10 c_mytemp c_mypress v_vmyvol v_avgEtotal file ${rampup_pravgfile}
fix 4 all ave/time 1 10 10 c_mytemp c_mypress v_vmyvol v_avgEtotal file rampup_pravg_1100.txt
# print to file average of every 10 steps. Every 10 femptoseconds

thermo 1000 # Print every "thermo" timesteps
run ${prrunl}
run 10000
Per MPI rank memory allocation (min/avg/max) = 3.605 | 3.605 | 3.605 Mbytes
   Step          Time           Temp          PotEng         KinEng         TotEng        c_mytemp      c_mypress        Volume    
         0   0              1021.3144     -103.59141      4.0924726     -99.49894       1021.3144      100109.22      504.04164    
      1000   1              1220.6841     -104.2587       4.8913599     -99.367343      1220.6841      100041.27      503.39654    
      2000   2              1178.6716     -104.15109      4.7230129     -99.428074      1178.6716      98504.401      504.2442     
      3000   3              979.75362     -103.40407      3.9259359     -99.478133      979.75362      102931.55      503.02725    
      4000   4              1085.504      -103.61899      4.3496845     -99.269304      1085.504       98945.586      503.68925    
      5000   5              1065.6629     -103.51393      4.27018       -99.243745      1065.6629      104799.12      502.30213    
      6000   6              1369.8902     -104.71057      5.4892385     -99.221329      1369.8902      100427.78      502.14291    
      7000   7              1126.4526     -104.01009      4.5137682     -99.49632       1126.4526      102102.1       503.39248    
      8000   8              1037.3079     -103.51929      4.1565595     -99.362732      1037.3079      98378.084      504.09166    
      9000   9              1088.6737     -103.74716      4.3623857     -99.384776      1088.6737      99221.354      504.68699    
     10000   10             1321.5573     -104.61749      5.2955654     -99.321924      1321.5573      95429.528      504.53208    
Loop time of 0.950396 on 2 procs for 10000 steps with 32 atoms

Performance: 909.095 ns/day, 0.026 hours/ns, 10521.932 timesteps/s
98.1% CPU use with 2 MPI tasks x 1 OpenMP threads

MPI task timing breakdown:
Section |  min time  |  avg time  |  max time  |%varavg| %total
---------------------------------------------------------------
Pair    | 0.54753    | 0.58381    | 0.62009    |   4.7 | 61.43
Neigh   | 0.0008029  | 0.00089965 | 0.0009964  |   0.0 |  0.09
Comm    | 0.11824    | 0.15481    | 0.19137    |   9.3 | 16.29
Output  | 7.5954e-05 | 0.00011383 | 0.00015172 |   0.0 |  0.01
Modify  | 0.20035    | 0.20112    | 0.2019     |   0.2 | 21.16
Other   |            | 0.009639   |            |       |  1.01

Nlocal:             16 ave          20 max          12 min
Histogram: 1 0 0 0 0 0 0 0 0 1
Nghost:            914 ave         918 max         910 min
Histogram: 1 0 0 0 0 0 0 0 0 1
Neighs:           1291 ave        1416 max        1166 min
Histogram: 1 0 0 0 0 0 0 0 0 1

Total # of neighbors = 2582
Ave neighs/atom = 80.6875
Neighbor list builds = 19
Dangerous builds = 0
variable final_temp_avg equal f_3[1]
variable final_press_avg equal f_3[2]
variable final_vol_avg equal f_3[3]
variable final_etot_avg equal f_3[4]

print "${final_temp_avg} ${final_press_avg} ${final_vol_avg} ${final_etot_avg}" append ${prallfile}
print "${final_temp_avg} ${final_press_avg} ${final_vol_avg} ${final_etot_avg}" append prall.txt
1098.62437401372 99745.6229596881 503.817421486038 -3.1063342584759

unfix 3
unfix 4
#unfix 1

next i
jump Ramp.txt.in LoopStart
variable i loop ${LoopSize}
variable i loop 21
print " "
 
print "*******LOOP # $i*********"
*******LOOP # 10*********
print " "
 
variable tempvar equal ${TempStep}*${i}+${TempInitial}-${TempStep}
variable tempvar equal 25*${i}+${TempInitial}-${TempStep}
variable tempvar equal 25*10+${TempInitial}-${TempStep}
variable tempvar equal 25*10+900-${TempStep}
variable tempvar equal 25*10+900-25
variable rampup_eqavgfile string rampup_eqavg_${tempvar}.txt
[...]
Modify  | 0.12511    | 0.12552    | 0.12593    |   0.1 | 18.24
Other   |            | 0.008359   |            |       |  1.21

Nlocal:             16 ave          17 max          15 min
Histogram: 1 0 0 0 0 0 0 0 0 1
Nghost:          699.5 ave         712 max         687 min
Histogram: 1 0 0 0 0 0 0 0 0 1
Neighs:           1031 ave        1110 max         952 min
Histogram: 1 0 0 0 0 0 0 0 0 1

Total # of neighbors = 2062
Ave neighs/atom = 64.4375
Neighbor list builds = 192
Dangerous builds = 0
unfix 2
# unfix 3

# NPT Production run at temperature
reset_timestep 0
variable prrunl equal 1E4
fix 3 all ave/time 1 10000 10000 c_mytemp c_mypress v_vmyvol v_avgEtotal
fix 4 all ave/time 1 10 10 c_mytemp c_mypress v_vmyvol v_avgEtotal file ${rampdown_pravgfile}
fix 4 all ave/time 1 10 10 c_mytemp c_mypress v_vmyvol v_avgEtotal file rampdown_pravg_1550.txt
# print to file average of every 10 steps. Every 10 femptoseconds

thermo 1000 # Print every "thermo" timesteps
run ${prrunl}
run 10000
Per MPI rank memory allocation (min/avg/max) = 3.707 | 3.707 | 3.707 Mbytes
   Step          Time           Temp          PotEng         KinEng         TotEng        c_mytemp      c_mypress        Volume    
         0   0              1485.0456     -97.262192      5.9506735     -91.311519      1485.0456      7810.8618      622.24187    
      1000   1              1540.4555     -97.125998      6.1727044     -90.953294      1540.4555     -6541.7402      652.30948    
      2000   2              1447.2904     -96.278914      5.799386      -90.479528      1447.2904      2598.3598      645.68125    
      3000   3              1394.1941     -97.678747      5.5866258     -92.092121      1394.1941      1173.5525      628.41977    
      4000   4              1550.5784     -96.345617      6.2132676     -90.132349      1550.5784     -3429.0477      648.53251    
      5000   5              1682.8129     -97.719825      6.7431398     -90.976685      1682.8129     -21216.886      662.15324    
      6000   6              1482.0558     -96.585072      5.9386931     -90.646379      1482.0558     -891.71345      648.56934    
      7000   7              1670.0426     -97.491292      6.6919686     -90.799323      1670.0426      6100.578       626.36178    
      8000   8              1433.6131     -96.829008      5.7445802     -91.084428      1433.6131      6393.6745      646.97347    
      9000   9              1302.1054     -97.306616      5.2176205     -92.088996      1302.1054     -3158.2754      631.66888    
     10000   10             1502.3886     -96.837461      6.0201681     -90.817293      1502.3886      1892.7768      635.21155    
Loop time of 0.738826 on 2 procs for 10000 steps with 32 atoms

Performance: 1169.423 ns/day, 0.021 hours/ns, 13534.985 timesteps/s
97.1% CPU use with 2 MPI tasks x 1 OpenMP threads

MPI task timing breakdown:
Section |  min time  |  avg time  |  max time  |%varavg| %total
---------------------------------------------------------------
Pair    | 0.4491     | 0.44995    | 0.45079    |   0.1 | 60.90
Neigh   | 0.006408   | 0.0064356  | 0.0064632  |   0.0 |  0.87
Comm    | 0.09143    | 0.092194   | 0.092959   |   0.3 | 12.48
Output  | 0.0001979  | 0.00026011 | 0.00032232 |   0.0 |  0.04
Modify  | 0.18084    | 0.18154    | 0.18225    |   0.2 | 24.57
Other   |            | 0.008448   |            |       |  1.14

Nlocal:             16 ave          16 max          16 min
Histogram: 2 0 0 0 0 0 0 0 0 0
Nghost:            689 ave         692 max         686 min
Histogram: 1 0 0 0 0 0 0 0 0 1
Neighs:         1002.5 ave        1003 max        1002 min
Histogram: 1 0 0 0 0 0 0 0 0 1

Total # of neighbors = 2005
Ave neighs/atom = 62.65625
Neighbor list builds = 193
Dangerous builds = 0
variable final_temp_avg equal f_3[1]
variable final_press_avg equal f_3[2]
variable final_vol_avg equal f_3[3]
variable final_etot_avg equal f_3[4]

print "${final_temp_avg} ${final_press_avg} ${final_vol_avg} ${final_etot_avg}" append ${prallfile}
print "${final_temp_avg} ${final_press_avg} ${final_vol_avg} ${final_etot_avg}" append prall.txt
1542.41971251984 -183.030121873618 643.305254845397 -2.84072104906408

unfix 3
unfix 4
#unfix 1

next i
jump Ramp.txt.in LoopStart2
variable i loop ${LoopSize}
variable i loop 21
print " "
 
print "*******LOOP2 # $i*********"
*******LOOP2 # 20*********
print " "
 
variable tempvar equal ${TempFinal}+${TempStep}-${TempStep}*${i}
variable tempvar equal 2000+${TempStep}-${TempStep}*${i}
variable tempvar equal 2000+25-${TempStep}*${i}
variable tempvar equal 2000+25-25*${i}
variable tempvar equal 2000+25-25*20
variable rampdown_eqavgfile string rampdown_eqavg_${tempvar}.txt
variable rampdown_eqavgfile string rampdown_eqavg_1525.txt
variable rampdown_pravgfile string rampdown_pravg_${tempvar}.txt
variable rampdown_pravgfile string rampdown_pravg_1525.txt
# variable rampup_eqfile string rampup_eq_${tempvar}.txt

# NPT Equilibration run at temperature
reset_timestep 0
variable eqrunl equal 1E4 # Keep > 10000 to avoid crashing fix lines below for time avg output
fix 1 all npt temp ${tempvar} ${tempvar} 0.1 iso 1 1 1 drag 1 # npt ensemble molecular dynamics.
fix 1 all npt temp 1525 ${tempvar} 0.1 iso 1 1 1 drag 1 
fix 1 all npt temp 1525 1525 0.1 iso 1 1 1 drag 1 
fix 2 all ave/time 1 10 10 c_mytemp c_mypress v_vmyvol v_avgEtotal file ${rampdown_eqavgfile}
fix 2 all ave/time 1 10 10 c_mytemp c_mypress v_vmyvol v_avgEtotal file rampdown_eqavg_1525.txt
# print to file average of every 10 steps. Every 10 femptoseconds
thermo 1000 # Print every "thermo" timesteps
run ${eqrunl}
run 10000
Per MPI rank memory allocation (min/avg/max) = 3.707 | 3.707 | 3.707 Mbytes
   Step          Time           Temp          PotEng         KinEng         TotEng        c_mytemp      c_mypress        Volume    
         0   0              1502.3886     -96.837461      6.0201681     -90.817293      1502.3886      1892.7768      635.21155    
      1000   1              1492.157      -96.831186      5.9791695     -90.852016      1492.157       7776.2466      637.4795     
      2000   2              1260.9894     -95.745803      5.052866      -90.692937      1260.9894      1003.4834      659.38877    
      3000   3              1488.7236     -97.013694      5.9654114     -91.048283      1488.7236     -12024.27       644.12585    
      4000   4              1733.9218     -98.5287        6.9479364     -91.580763      1733.9218     -11755.473      633.57825    
      5000   5              1839.9945     -97.624727      7.3729767     -90.251751      1839.9945     -2762.018       643.48044    
      6000   6              1661.0323     -97.633333      6.6558635     -90.97747       1661.0323     -14099.28       649.83188    
      7000   7              1647.6744     -97.264221      6.6023375     -90.661884      1647.6744     -11929.988      657.26613    
      8000   8              1466.1361     -98.018661      5.874902      -92.143759      1466.1361      405.09612      631.78984    
      9000   9              1236.7353     -95.533848      4.9556782     -90.578169      1236.7353     -5299.5452      660.76393    
     10000   10             1435.4519     -96.794122      5.7519485     -91.042173      1435.4519      8854.0707      633.153      
Loop time of 0.68768 on 2 procs for 10000 steps with 32 atoms

Performance: 1256.399 ns/day, 0.019 hours/ns, 14541.657 timesteps/s
96.9% CPU use with 2 MPI tasks x 1 OpenMP threads

MPI task timing breakdown:
Section |  min time  |  avg time  |  max time  |%varavg| %total
---------------------------------------------------------------
Pair    | 0.44962    | 0.45378    | 0.45795    |   0.6 | 65.99
Neigh   | 0.0063601  | 0.0063933  | 0.0064265  |   0.0 |  0.93
Comm    | 0.089371   | 0.09352    | 0.097669   |   1.4 | 13.60
Output  | 9.4086e-05 | 0.00012692 | 0.00015975 |   0.0 |  0.02
Modify  | 0.12523    | 0.12556    | 0.12589    |   0.1 | 18.26
Other   |            | 0.008297   |            |       |  1.21

Nlocal:             16 ave          16 max          16 min
Histogram: 2 0 0 0 0 0 0 0 0 0
Nghost:          687.5 ave         689 max         686 min
Histogram: 1 0 0 0 0 0 0 0 0 1
Neighs:         1019.5 ave        1036 max        1003 min
Histogram: 1 0 0 0 0 0 0 0 0 1

Total # of neighbors = 2039
Ave neighs/atom = 63.71875
Neighbor list builds = 188
Dangerous builds = 0
unfix 2
# unfix 3

# NPT Production run at temperature
reset_timestep 0
variable prrunl equal 1E4
fix 3 all ave/time 1 10000 10000 c_mytemp c_mypress v_vmyvol v_avgEtotal
fix 4 all ave/time 1 10 10 c_mytemp c_mypress v_vmyvol v_avgEtotal file ${rampdown_pravgfile}
fix 4 all ave/time 1 10 10 c_mytemp c_mypress v_vmyvol v_avgEtotal file rampdown_pravg_1525.txt
# print to file average of every 10 steps. Every 10 femptoseconds

thermo 1000 # Print every "thermo" timesteps
run ${prrunl}
run 10000
Per MPI rank memory allocation (min/avg/max) = 3.707 | 3.707 | 3.707 Mbytes
   Step          Time           Temp          PotEng         KinEng         TotEng        c_mytemp      c_mypress        Volume    
         0   0              1435.4519     -96.794122      5.7519485     -91.042173      1435.4519      8854.0707      633.153      
      1000   1              1506.8133     -97.289122      6.0378982     -91.251223      1506.8133     -3545.6825      637.61671    
      2000   2              1646.1311     -98.5504        6.5961535     -91.954247      1646.1311      1349.5027      629.11677    
      3000   3              1623.8618     -97.987555      6.5069188     -91.480637      1623.8618      9249.5527      623.54257    
      4000   4              1513.2893     -96.815642      6.063848      -90.751794      1513.2893     -7448.1044      651.5743     
      5000   5              1492.9239     -97.322476      5.9822423     -91.340233      1492.9239      2741.0952      628.38878    
      6000   6              1567.9803     -97.472925      6.2829982     -91.189927      1567.9803     -5371.4888      642.70388    
      7000   7              1892.397      -98.361139      7.5829567     -90.778183      1892.397      -5961.2178      636.47188    
      8000   8              1440.1234     -97.228262      5.7706673     -91.457594      1440.1234      1935.3369      636.09322    
      9000   9              1188.2209     -96.456443      4.7612778     -91.695166      1188.2209      198.30858      640.55445    
     10000   10             1459.3655     -96.711148      5.8477717     -90.863376      1459.3655      4629.3552      658.23387    
Loop time of 0.741298 on 2 procs for 10000 steps with 32 atoms

Performance: 1165.523 ns/day, 0.021 hours/ns, 13489.845 timesteps/s
97.2% CPU use with 2 MPI tasks x 1 OpenMP threads

MPI task timing breakdown:
Section |  min time  |  avg time  |  max time  |%varavg| %total
---------------------------------------------------------------
Pair    | 0.45349    | 0.45399    | 0.45449    |   0.1 | 61.24
Neigh   | 0.0062239  | 0.006284   | 0.006344   |   0.1 |  0.85
Comm    | 0.092171   | 0.092656   | 0.09314    |   0.2 | 12.50
Output  | 8.4018e-05 | 0.00012909 | 0.00017416 |   0.0 |  0.02
Modify  | 0.17945    | 0.17986    | 0.18026    |   0.1 | 24.26
Other   |            | 0.00838    |            |       |  1.13

Nlocal:             16 ave          16 max          16 min
Histogram: 2 0 0 0 0 0 0 0 0 0
Nghost:          648.5 ave         653 max         644 min
Histogram: 1 0 0 0 0 0 0 0 0 1
Neighs:          997.5 ave        1025 max         970 min
Histogram: 1 0 0 0 0 0 0 0 0 1

Total # of neighbors = 1995
Ave neighs/atom = 62.34375
Neighbor list builds = 188
Dangerous builds = 0
variable final_temp_avg equal f_3[1]
variable final_press_avg equal f_3[2]
variable final_vol_avg equal f_3[3]
variable final_etot_avg equal f_3[4]

print "${final_temp_avg} ${final_press_avg} ${final_vol_avg} ${final_etot_avg}" append ${prallfile}
print "${final_temp_avg} ${final_press_avg} ${final_vol_avg} ${final_etot_avg}" append prall.txt
1521.66786610635 -266.380032712473 637.995779525253 -2.84955799849432

unfix 3
unfix 4
#unfix 1

next i
jump Ramp.txt.in LoopStart2
variable i loop ${LoopSize}
variable i loop 21
print " "
 
print "*******LOOP2 # $i*********"
*******LOOP2 # 21*********
print " "
 
variable tempvar equal ${TempFinal}+${TempStep}-${TempStep}*${i}
variable tempvar equal 2000+${TempStep}-${TempStep}*${i}
variable tempvar equal 2000+25-${TempStep}*${i}
variable tempvar equal 2000+25-25*${i}
variable tempvar equal 2000+25-25*21
variable rampdown_eqavgfile string rampdown_eqavg_${tempvar}.txt
variable rampdown_eqavgfile string rampdown_eqavg_1500.txt
variable rampdown_pravgfile string rampdown_pravg_${tempvar}.txt
variable rampdown_pravgfile string rampdown_pravg_1500.txt
# variable rampup_eqfile string rampup_eq_${tempvar}.txt

# NPT Equilibration run at temperature
reset_timestep 0
variable eqrunl equal 1E4 # Keep > 10000 to avoid crashing fix lines below for time avg output
fix 1 all npt temp ${tempvar} ${tempvar} 0.1 iso 1 1 1 drag 1 # npt ensemble molecular dynamics.
fix 1 all npt temp 1500 ${tempvar} 0.1 iso 1 1 1 drag 1 
fix 1 all npt temp 1500 1500 0.1 iso 1 1 1 drag 1 
fix 2 all ave/time 1 10 10 c_mytemp c_mypress v_vmyvol v_avgEtotal file ${rampdown_eqavgfile}
fix 2 all ave/time 1 10 10 c_mytemp c_mypress v_vmyvol v_avgEtotal file rampdown_eqavg_1500.txt
# print to file average of every 10 steps. Every 10 femptoseconds
thermo 1000 # Print every "thermo" timesteps
run ${eqrunl}
run 10000
Per MPI rank memory allocation (min/avg/max) = 3.707 | 3.707 | 3.707 Mbytes
   Step          Time           Temp          PotEng         KinEng         TotEng        c_mytemp      c_mypress        Volume    
         0   0              1459.3655     -96.711148      5.8477717     -90.863376      1459.3655      4629.3552      658.23387    
      1000   1              1586.4278     -97.985266      6.3569185     -91.628348      1586.4278      209.6458       635.48056    
      2000   2              1444.3884     -96.85388       5.7877576     -91.066122      1444.3884     -4552.892       645.95993    
      3000   3              1561.0975     -97.476922      6.2554184     -91.221503      1561.0975     -16527.272      653.83415    
      4000   4              1763.3552     -98.818285      7.065878      -91.752407      1763.3552      4917.0288      621.09036    
      5000   5              1341.4269     -96.477167      5.3751842     -91.101983      1341.4269     -10238.768      656.51695    
      6000   6              1362.3606     -97.724419      5.4590669     -92.265353      1362.3606     -5820.3761      634.37697    
      7000   7              1345.8219     -96.573616      5.3927953     -91.180821      1345.8219     -7422.5749      653.50011    
      8000   8              1399.1603     -97.449867      5.6065256     -91.843342      1399.1603      19507.398      619.28461    
      9000   9              1463.7547     -97.117081      5.8653594     -91.251722      1463.7547      1395.899       645.92816    
     10000   10             1457.1548     -96.888423      5.8389134     -91.049509      1457.1548     -1227.0499      642.15437    
Loop time of 0.682823 on 2 procs for 10000 steps with 32 atoms

Performance: 1265.335 ns/day, 0.019 hours/ns, 14645.078 timesteps/s
97.9% CPU use with 2 MPI tasks x 1 OpenMP threads

MPI task timing breakdown:
Section |  min time  |  avg time  |  max time  |%varavg| %total
---------------------------------------------------------------
Pair    | 0.44602    | 0.45084    | 0.45567    |   0.7 | 66.03
Neigh   | 0.0062629  | 0.0063215  | 0.0063802  |   0.1 |  0.93
Comm    | 0.088392   | 0.093229   | 0.098066   |   1.6 | 13.65
Output  | 8.7716e-05 | 0.00012141 | 0.0001551  |   0.0 |  0.02
Modify  | 0.1238     | 0.12405    | 0.1243     |   0.1 | 18.17
Other   |            | 0.008261   |            |       |  1.21

Nlocal:             16 ave          18 max          14 min
Histogram: 1 0 0 0 0 0 0 0 0 1
Nghost:          681.5 ave         696 max         667 min
Histogram: 1 0 0 0 0 0 0 0 0 1
Neighs:           1003 ave        1128 max         878 min
Histogram: 1 0 0 0 0 0 0 0 0 1

Total # of neighbors = 2006
Ave neighs/atom = 62.6875
Neighbor list builds = 189
Dangerous builds = 0
unfix 2
# unfix 3

# NPT Production run at temperature
reset_timestep 0
variable prrunl equal 1E4
fix 3 all ave/time 1 10000 10000 c_mytemp c_mypress v_vmyvol v_avgEtotal
fix 4 all ave/time 1 10 10 c_mytemp c_mypress v_vmyvol v_avgEtotal file ${rampdown_pravgfile}
fix 4 all ave/time 1 10 10 c_mytemp c_mypress v_vmyvol v_avgEtotal file rampdown_pravg_1500.txt
# print to file average of every 10 steps. Every 10 femptoseconds

thermo 1000 # Print every "thermo" timesteps
run ${prrunl}
run 10000
Per MPI rank memory allocation (min/avg/max) = 3.707 | 3.707 | 3.707 Mbytes
   Step          Time           Temp          PotEng         KinEng         TotEng        c_mytemp      c_mypress        Volume    
         0   0              1457.1548     -96.888423      5.8389134     -91.049509      1457.1548     -1227.0499      642.15437    
      1000   1              1480.2455     -97.01696       5.9314391     -91.08552       1480.2455     -488.60765      657.48697    
      2000   2              1275.433      -97.066632      5.1107422     -91.95589       1275.433       3380.1932      635.01535    
      3000   3              1672.7712     -97.870862      6.7029022     -91.16796       1672.7712     -9232.2762      642.75705    
      4000   4              1212.3571     -96.441343      4.857993      -91.58335       1212.3571     -3685.6707      661.64816    
      5000   5              1485.6593     -97.621867      5.9531326     -91.668734      1485.6593      14499.994      628.94635    
      6000   6              1482.6618     -97.0392        5.9411216     -91.098078      1482.6618     -6228.4003      650.61286    
      7000   7              1600.8404     -97.609531      6.4146706     -91.19486       1600.8404     -3439.8336      634.76612    
      8000   8              1688.6498     -98.820216      6.7665288     -92.053687      1688.6498      558.08868      622.47014    
      9000   9              1650.0475     -98.056001      6.6118468     -91.444154      1650.0475      229.40813      631.09224    
     10000   10             1606.9011     -98.245301      6.4389563     -91.806345      1606.9011     -8327.2433      637.49578    
Loop time of 0.736847 on 2 procs for 10000 steps with 32 atoms

Performance: 1172.564 ns/day, 0.020 hours/ns, 13571.337 timesteps/s
96.9% CPU use with 2 MPI tasks x 1 OpenMP threads

MPI task timing breakdown:
Section |  min time  |  avg time  |  max time  |%varavg| %total
---------------------------------------------------------------
Pair    | 0.44958    | 0.45164    | 0.45369    |   0.3 | 61.29
Neigh   | 0.0063813  | 0.0063814  | 0.0063815  |   0.0 |  0.87
Comm    | 0.089157   | 0.091113   | 0.09307    |   0.6 | 12.37
Output  | 0.00015113 | 0.00023877 | 0.00032642 |   0.0 |  0.03
Modify  | 0.17858    | 0.17893    | 0.17927    |   0.1 | 24.28
Other   |            | 0.008551   |            |       |  1.16

Nlocal:             16 ave          18 max          14 min
Histogram: 1 0 0 0 0 0 0 0 0 1
Nghost:          681.5 ave         693 max         670 min
Histogram: 1 0 0 0 0 0 0 0 0 1
Neighs:         1007.5 ave        1112 max         903 min
Histogram: 1 0 0 0 0 0 0 0 0 1

Total # of neighbors = 2015
Ave neighs/atom = 62.96875
Neighbor list builds = 190
Dangerous builds = 0
variable final_temp_avg equal f_3[1]
variable final_press_avg equal f_3[2]
variable final_vol_avg equal f_3[3]
variable final_etot_avg equal f_3[4]

print "${final_temp_avg} ${final_press_avg} ${final_vol_avg} ${final_etot_avg}" append ${prallfile}
print "${final_temp_avg} ${final_press_avg} ${final_vol_avg} ${final_etot_avg}" append prall.txt
1497.43338739401 -260.81366877297 638.907818008148 -2.85646913053522

unfix 3
unfix 4
#unfix 1

next i
jump Ramp.txt.in LoopStart2
variable i delete
Total wall time: 0:01:10
