
     Program BANDS v.7.3.1 starts on  5Oct2024 at 23:59:15 

     This program is part of the open-source Quantum ESPRESSO suite
     for quantum simulation of materials; please cite
         "P. Giannozzi et al., J. Phys.:Condens. Matter 21 395502 (2009);
         "P. Giannozzi et al., J. Phys.:Condens. Matter 29 465901 (2017);
         "P. Giannozzi et al., J. Chem. Phys. 152 154105 (2020);
          URL http://www.quantum-espresso.org", 
     in publications or presentations arising from this work. More details at
     http://www.quantum-espresso.org/quote

     Parallel version (MPI & OpenMP), running on       2 processor cores
     Number of MPI processes:                 2
     Threads/MPI process:                     1

     MPI processes distributed on     1 nodes
     R & G space division:  proc/nbgrp/npool/nimage =       2
     508646 MiB available memory on the printing compute node when the environment starts


     Reading xml data from directory:

     ./diamond.save/

     IMPORTANT: XC functional enforced from input :
     Exchange-correlation= PBE
                           (   1   4   3   4   0   0   0)
     Any further DFT definition will be discarded
     Please, verify this is what you really want


     Parallelization info
     --------------------
     sticks:   dense  smooth     PW     G-vecs:    dense   smooth      PW
     Min         156     156     60                 1847     1847     434
     Max         157     157     61                 1848     1848     435
     Sum         313     313    121                 3695     3695     869

     Using Slab Decomposition

     Reading collected, re-writing distributed wavefunctions
     high-symmetry point:  0.0000 0.0000 0.0000   x coordinate   0.0000
     high-symmetry point:  0.5000 0.0000 0.5000   x coordinate   0.7071
     high-symmetry point:  0.3750 0.3750 0.7500   x coordinate   1.1748
     high-symmetry point:  0.0000 0.0000 0.0000   x coordinate   2.0934
     high-symmetry point:  0.5000 0.5000 0.5000   x coordinate   2.9594
     high-symmetry point:  0.2500 0.2500 0.2500   x coordinate   3.3924

     Plottable bands (eV) written to file bands.dat.gnu
     Bands written to file bands.dat

 **************************************************************************

                    xk=(   0.00000,   0.00000,   0.00000  )

     point group O_h (m-3m) 
     there are 10 classes
     the character table:

       E     8C3   3C2   6C4   6C2'  i     8S6   3s_h  6S4   6s_d 
A_1g   1.00  1.00  1.00  1.00  1.00  1.00  1.00  1.00  1.00  1.00
A_2g   1.00  1.00  1.00 -1.00 -1.00  1.00  1.00  1.00 -1.00 -1.00
E_g    2.00 -1.00  2.00  0.00  0.00  2.00 -1.00  2.00  0.00  0.00
T_1g   3.00  0.00 -1.00  1.00 -1.00  3.00  0.00 -1.00  1.00 -1.00
T_2g   3.00  0.00 -1.00 -1.00  1.00  3.00  0.00 -1.00 -1.00  1.00
A_1u   1.00  1.00  1.00  1.00  1.00 -1.00 -1.00 -1.00 -1.00 -1.00
A_2u   1.00  1.00  1.00 -1.00 -1.00 -1.00 -1.00 -1.00  1.00  1.00
E_u    2.00 -1.00  2.00  0.00  0.00 -2.00  1.00 -2.00  0.00  0.00
T_1u   3.00  0.00 -1.00  1.00 -1.00 -3.00  0.00  1.00 -1.00  1.00
T_2u   3.00  0.00 -1.00 -1.00  1.00 -3.00  0.00  1.00  1.00 -1.00

     the symmetry operations in each class and the name of the first element:

     E        1
                                                                 
     8C3     17   19   20   18   24   21   22   23
                                                                 
     3C2      2    4    3
                                                                 
     6C4      7    8   15   16   12   11
                                                                 
     6C2'     5    6   14   13   10    9
                                                                 
     i       25
                                                                 
     8S6     41   43   44   42   48   45   46   47
                                                                 
     3s_h    26   28   27
                                                                 
     6S4     31   32   39   40   36   35
                                                                 
     6s_d    29   30   38   37   34   33
                                                                 

     Band symmetry, O_h (m-3m)  point group:

     e(  1 -  1) =     -8.11619  eV     1   --> A_1g G_1   G_1+
     e(  2 -  4) =     13.34260  eV     3   --> T_2g G_25' G_5+
     e(  5 -  7) =     18.95449  eV     3   --> T_1u G_15  G_4-
     e(  8 -  8) =     26.71520  eV     1   --> A_2u G_2'  G_2-

 **************************************************************************

 **************************************************************************

                    xk=(   0.05000,   0.00000,   0.05000  )

     point group C_2v (mm2) 
     there are  4 classes
     the character table:

       E     C2    s_v   s_v' 
A_1    1.00  1.00  1.00  1.00
A_2    1.00  1.00 -1.00 -1.00
B_1    1.00 -1.00  1.00 -1.00
B_2    1.00 -1.00 -1.00  1.00

     the symmetry operations in each class and the name of the first element:

     E        1
                                                                 
     C2       2
                                                                 
     s_v      3
                                                                 
     s_v'     4
                                                                 

     Band symmetry, C_2v (mm2)  point group:

     e(  1 -  1) =     -8.07003  eV     1   --> A_1  D_1  S_1  
     e(  2 -  2) =     13.07384  eV     1   --> B_2  D_4  S_4  
     e(  3 -  3) =     13.14927  eV     1   --> A_1  D_1  S_1  
     e(  4 -  4) =     13.31495  eV     1   --> A_2  D_2  S_2  
     e(  5 -  5) =     19.00148  eV     1   --> B_1  D_3  S_3  
     e(  6 -  6) =     19.10530  eV     1   --> A_1  D_1  S_1  
     e(  7 -  7) =     19.18085  eV     1   --> B_2  D_4  S_4  
     e(  8 -  8) =     26.75343  eV     1   --> B_2  D_4  S_4  

 **************************************************************************

 **************************************************************************

                    xk=(   0.10000,   0.00000,   0.10000  )

     Band symmetry, C_2v (mm2)  point group:

     e(  1 -  1) =     -7.93165  eV     1   --> A_1  D_1  S_1  
     e(  2 -  2) =     12.37687  eV     1   --> B_2  D_4  S_4  
     e(  3 -  3) =     12.62576  eV     1   --> A_1  D_1  S_1  
     e(  4 -  4) =     13.23192  eV     1   --> A_2  D_2  S_2  
     e(  5 -  5) =     19.14242  eV     1   --> B_1  D_3  S_3  
     e(  6 -  6) =     19.50821  eV     1   --> A_1  D_1  S_1  
     e(  7 -  7) =     19.73478  eV     1   --> B_2  D_4  S_4  
     e(  8 -  8) =     26.85878  eV     1   --> B_2  D_4  S_4  

 **************************************************************************

 **************************************************************************

                    xk=(   0.15000,   0.00000,   0.15000  )

     Band symmetry, C_2v (mm2)  point group:

     e(  1 -  1) =     -7.70144  eV     1   --> A_1  D_1  S_1  
     e(  2 -  2) =     11.44705  eV     1   --> B_2  D_4  S_4  
     e(  3 -  3) =     11.88312  eV     1   --> A_1  D_1  S_1  
     e(  4 -  4) =     13.08365  eV     1   --> A_2  D_2  S_2  
     e(  5 -  5) =     19.37590  eV     1   --> B_1  D_3  S_3  
     e(  6 -  6) =     20.06683  eV     1   --> A_1  D_1  S_1  
     e(  7 -  7) =     20.40165  eV     1   --> B_2  D_4  S_4  
     e(  8 -  8) =     26.99858  eV     1   --> B_2  D_4  S_4  

 **************************************************************************

 **************************************************************************

                    xk=(   0.20000,   0.00000,   0.20000  )

     Band symmetry, C_2v (mm2)  point group:

     e(  1 -  1) =     -7.38010  eV     1   --> A_1  D_1  S_1  
     e(  2 -  2) =     10.42167  eV     1   --> B_2  D_4  S_4  
     e(  3 -  3) =     11.01908  eV     1   --> A_1  D_1  S_1  
     e(  4 -  4) =     12.86977  eV     1   --> A_2  D_2  S_2  
     e(  5 -  5) =     19.69955  eV     1   --> B_1  D_3  S_3  
     e(  6 -  6) =     20.71590  eV     1   --> A_1  D_1  S_1  
     e(  7 -  7) =     21.03261  eV     1   --> B_2  D_4  S_4  
     e(  8 -  8) =     27.12030  eV     1   --> B_2  D_4  S_4  

 **************************************************************************

 **************************************************************************

                    xk=(   0.25000,   0.00000,   0.25000  )

     Band symmetry, C_2v (mm2)  point group:

     e(  1 -  1) =     -6.96864  eV     1   --> A_1  D_1  S_1  
     e(  2 -  2) =      9.37085  eV     1   --> B_2  D_4  S_4  
     e(  3 -  3) =     10.09947  eV     1   --> A_1  D_1  S_1  
     e(  4 -  4) =     12.59136  eV     1   --> A_2  D_2  S_2  
     e(  5 -  5) =     20.11490  eV     1   --> B_1  D_3  S_3  
     e(  6 -  6) =     21.43081  eV     1   --> A_1  D_1  S_1  
     e(  7 -  7) =     21.54374  eV     1   --> B_2  D_4  S_4  
     e(  8 -  8) =     27.17047  eV     1   --> B_2  D_4  S_4  

 **************************************************************************

 **************************************************************************

                    xk=(   0.30000,   0.00000,   0.30000  )

     Band symmetry, C_2v (mm2)  point group:

     e(  1 -  1) =     -6.46872  eV     1   --> A_1  D_1  S_1  
     e(  2 -  2) =      8.33125  eV     1   --> B_2  D_4  S_4  
     e(  3 -  3) =      9.16095  eV     1   --> A_1  D_1  S_1  
     e(  4 -  4) =     12.24053  eV     1   --> A_2  D_2  S_2  
     e(  5 -  5) =     20.61003  eV     1   --> B_1  D_3  S_3  
     e(  6 -  6) =     21.88250  eV     1   --> B_2  D_4  S_4  
     e(  7 -  7) =     22.19070  eV     1   --> A_1  D_1  S_1  
     e(  8 -  8) =     27.13249  eV     1   --> B_2  D_4  S_4  

 **************************************************************************

 **************************************************************************

                    xk=(   0.35000,   0.00000,   0.35000  )

     Band symmetry, C_2v (mm2)  point group:

     e(  1 -  1) =     -5.88248  eV     1   --> A_1  D_1  S_1  
     e(  2 -  2) =      7.32875  eV     1   --> B_2  D_4  S_4  
     e(  3 -  3) =      8.23639  eV     1   --> A_1  D_1  S_1  
     e(  4 -  4) =     11.82704  eV     1   --> A_2  D_2  S_2  
     e(  5 -  5) =     21.19260  eV     1   --> B_1  D_3  S_3  
     e(  6 -  6) =     22.02512  eV     1   --> B_2  D_4  S_4  
     e(  7 -  7) =     23.00234  eV     1   --> A_1  D_1  S_1  
     e(  8 -  8) =     27.06111  eV     1   --> B_2  D_4  S_4  

 **************************************************************************

 **************************************************************************

                    xk=(   0.40000,   0.00000,   0.40000  )

     Band symmetry, C_2v (mm2)  point group:

     e(  1 -  1) =     -5.21335  eV     1   --> A_1  D_1  S_1  
     e(  2 -  2) =      6.37670  eV     1   --> B_2  D_4  S_4  
     e(  3 -  3) =      7.34750  eV     1   --> A_1  D_1  S_1  
     e(  4 -  4) =     11.36081  eV     1   --> A_2  D_2  S_2  
     e(  5 -  5) =     21.85022  eV     1   --> B_1  D_3  S_3  
     e(  6 -  6) =     21.95708  eV     1   --> B_2  D_4  S_4  
     e(  7 -  7) =     23.86314  eV     1   --> A_1  D_1  S_1  
     e(  8 -  8) =     27.03491  eV     1   --> B_2  D_4  S_4  

 **************************************************************************

 **************************************************************************

                    xk=(   0.45000,   0.00000,   0.45000  )

     Band symmetry, C_2v (mm2)  point group:

     e(  1 -  1) =     -4.46635  eV     1   --> A_1  D_1  S_1  
     e(  2 -  2) =      5.48346  eV     1   --> B_2  D_4  S_4  
     e(  3 -  3) =      6.51117  eV     1   --> A_1  D_1  S_1  
     e(  4 -  4) =     10.85754  eV     1   --> A_2  D_2  S_2  
     e(  5 -  5) =     21.70190  eV     1   --> B_2  D_4  S_4  
     e(  6 -  6) =     22.57858  eV     1   --> B_1  D_3  S_3  
     e(  7 -  7) =     24.77544  eV     1   --> A_1  D_1  S_1  
     e(  8 -  8) =     27.10756  eV     1   --> B_2  D_4  S_4  

 **************************************************************************

 **************************************************************************

                    xk=(   0.50000,   0.00000,   0.50000  )

     Band symmetry, C_2v (mm2)  point group:

     e(  1 -  1) =     -3.64939  eV     1   --> A_1  D_1  S_1  
     e(  2 -  2) =      4.65625  eV     1   --> B_2  D_4  S_4  
     e(  3 -  3) =      5.74276  eV     1   --> A_1  D_1  S_1  
     e(  4 -  4) =     10.33365  eV     1   --> A_2  D_2  S_2  
     e(  5 -  5) =     21.31339  eV     1   --> B_2  D_4  S_4  
     e(  6 -  6) =     23.36841  eV     1   --> B_1  D_3  S_3  
     e(  7 -  7) =     25.72717  eV     1   --> A_1  D_1  S_1  
     e(  8 -  8) =     27.28708  eV     1   --> B_2  D_4  S_4  

 **************************************************************************

 **************************************************************************

                    xk=(   0.48750,   0.03750,   0.52500  )

     point group C_1 (1)    
     there are  1 classes
     the character table:

       E    
A      1.00

     the symmetry operations in each class and the name of the first element:

     E        1
                                                                 

     Band symmetry, C_1 (1)     point group:

     e(  1 -  1) =     -3.52557  eV     1   --> A              
     e(  2 -  2) =      4.33667  eV     1   --> A              
     e(  3 -  3) =      5.88482  eV     1   --> A              
     e(  4 -  4) =     10.24072  eV     1   --> A              
     e(  5 -  5) =     21.30473  eV     1   --> A              
     e(  6 -  6) =     23.38713  eV     1   --> A              
     e(  7 -  7) =     25.77538  eV     1   --> A              
     e(  8 -  8) =     27.36792  eV     1   --> A              

 **************************************************************************

 **************************************************************************

                    xk=(   0.47500,   0.07500,   0.55000  )

     Band symmetry, C_1 (1)     point group:

     e(  1 -  1) =     -3.36687  eV     1   --> A              
     e(  2 -  2) =      3.81306  eV     1   --> A              
     e(  3 -  3) =      6.25566  eV     1   --> A              
     e(  4 -  4) =     10.09687  eV     1   --> A              
     e(  5 -  5) =     21.38353  eV     1   --> A              
     e(  6 -  6) =     23.24510  eV     1   --> A              
     e(  7 -  7) =     25.72019  eV     1   --> A              
     e(  8 -  8) =     27.51380  eV     1   --> A              

 **************************************************************************

 **************************************************************************

                    xk=(   0.46250,   0.11250,   0.57500  )

     Band symmetry, C_1 (1)     point group:

     e(  1 -  1) =     -3.17481  eV     1   --> A              
     e(  2 -  2) =      3.25810  eV     1   --> A              
     e(  3 -  3) =      6.68008  eV     1   --> A              
     e(  4 -  4) =      9.91106  eV     1   --> A              
     e(  5 -  5) =     21.53505  eV     1   --> A              
     e(  6 -  6) =     22.97122  eV     1   --> A              
     e(  7 -  7) =     25.65109  eV     1   --> A              
     e(  8 -  8) =     27.64906  eV     1   --> A              

 **************************************************************************

 **************************************************************************

                    xk=(   0.45000,   0.15000,   0.60000  )

     Band symmetry, C_1 (1)     point group:

     e(  1 -  1) =     -2.95206  eV     1   --> A              
     e(  2 -  2) =      2.71560  eV     1   --> A              
     e(  3 -  3) =      7.10549  eV     1   --> A              
     e(  4 -  4) =      9.69784  eV     1   --> A              
     e(  5 -  5) =     21.70457  eV     1   --> A              
     e(  6 -  6) =     22.65648  eV     1   --> A              
     e(  7 -  7) =     25.60470  eV     1   --> A              
     e(  8 -  8) =     27.73672  eV     1   --> A              

 **************************************************************************

 **************************************************************************

                    xk=(   0.43750,   0.18750,   0.62500  )

     Band symmetry, C_1 (1)     point group:

     e(  1 -  1) =     -2.70270  eV     1   --> A              
     e(  2 -  2) =      2.20305  eV     1   --> A              
     e(  3 -  3) =      7.49708  eV     1   --> A              
     e(  4 -  4) =      9.47764  eV     1   --> A              
     e(  5 -  5) =     21.69408  eV     1   --> A              
     e(  6 -  6) =     22.54568  eV     1   --> A              
     e(  7 -  7) =     25.57049  eV     1   --> A              
     e(  8 -  8) =     27.78484  eV     1   --> A              

 **************************************************************************

 **************************************************************************

                    xk=(   0.42500,   0.22500,   0.65000  )

     Band symmetry, C_1 (1)     point group:

     e(  1 -  1) =     -2.43373  eV     1   --> A              
     e(  2 -  2) =      1.73380  eV     1   --> A              
     e(  3 -  3) =      7.80661  eV     1   --> A              
     e(  4 -  4) =      9.29142  eV     1   --> A              
     e(  5 -  5) =     21.39847  eV     1   --> A              
     e(  6 -  6) =     22.78731  eV     1   --> A              
     e(  7 -  7) =     25.52057  eV     1   --> A              
     e(  8 -  8) =     27.82303  eV     1   --> A              

 **************************************************************************

 **************************************************************************

                    xk=(   0.41250,   0.26250,   0.67500  )

     Band symmetry, C_1 (1)     point group:

     e(  1 -  1) =     -2.15726  eV     1   --> A              
     e(  2 -  2) =      1.32341  eV     1   --> A              
     e(  3 -  3) =      7.95989  eV     1   --> A              
     e(  4 -  4) =      9.20287  eV     1   --> A              
     e(  5 -  5) =     21.05068  eV     1   --> A              
     e(  6 -  6) =     23.17488  eV     1   --> A              
     e(  7 -  7) =     25.42883  eV     1   --> A              
     e(  8 -  8) =     27.88352  eV     1   --> A              

 **************************************************************************

 **************************************************************************

                    xk=(   0.40000,   0.30000,   0.70000  )

     Band symmetry, C_1 (1)     point group:

     e(  1 -  1) =     -1.89554  eV     1   --> A              
     e(  2 -  2) =      0.99486  eV     1   --> A              
     e(  3 -  3) =      7.91190  eV     1   --> A              
     e(  4 -  4) =      9.24505  eV     1   --> A              
     e(  5 -  5) =     20.76569  eV     1   --> A              
     e(  6 -  6) =     23.60556  eV     1   --> A              
     e(  7 -  7) =     25.28703  eV     1   --> A              
     e(  8 -  8) =     27.98687  eV     1   --> A              

 **************************************************************************

 **************************************************************************

                    xk=(   0.38750,   0.33750,   0.72500  )

     Band symmetry, C_1 (1)     point group:

     e(  1 -  1) =     -1.68625  eV     1   --> A              
     e(  2 -  2) =      0.78690  eV     1   --> A              
     e(  3 -  3) =      7.72594  eV     1   --> A              
     e(  4 -  4) =      9.34338  eV     1   --> A              
     e(  5 -  5) =     20.58972  eV     1   --> A              
     e(  6 -  6) =     24.00736  eV     1   --> A              
     e(  7 -  7) =     25.13059  eV     1   --> A              
     e(  8 -  8) =     28.13702  eV     1   --> A              

 **************************************************************************

 **************************************************************************

                    xk=(   0.37500,   0.37500,   0.75000  )

     point group C_s (m)    
     there are  2 classes
     the character table:

       E     s    
A'     1.00  1.00
A''    1.00 -1.00

     the symmetry operations in each class and the name of the first element:

     E        1
                                                                 
     s        2
                                                                 

     Band symmetry, C_s (m)     point group:

     e(  1 -  1) =     -1.57757  eV     1   --> A'             
     e(  2 -  2) =      0.74671  eV     1   --> A'             
     e(  3 -  3) =      7.48186  eV     1   --> A'             
     e(  4 -  4) =      9.40984  eV     1   --> A''            
     e(  5 -  5) =     20.54963  eV     1   --> A'             
     e(  6 -  6) =     24.21067  eV     1   --> A''            
     e(  7 -  7) =     25.11858  eV     1   --> A'             
     e(  8 -  8) =     28.31491  eV     1   --> A'             

 **************************************************************************

 **************************************************************************

                    xk=(   0.33750,   0.33750,   0.67500  )

     Band symmetry, C_s (m)     point group:

     e(  1 -  1) =     -2.24849  eV     1   --> A'             
     e(  2 -  2) =      1.23199  eV     1   --> A'             
     e(  3 -  3) =      8.27364  eV     1   --> A'             
     e(  4 -  4) =      9.37463  eV     1   --> A''            
     e(  5 -  5) =     20.48606  eV     1   --> A'             
     e(  6 -  6) =     24.10614  eV     1   --> A''            
     e(  7 -  7) =     24.66217  eV     1   --> A'             
     e(  8 -  8) =     27.72238  eV     1   --> A'             

 **************************************************************************

 **************************************************************************

                    xk=(   0.30000,   0.30000,   0.60000  )

     Band symmetry, C_s (m)     point group:

     e(  1 -  1) =     -3.32970  eV     1   --> A'             
     e(  2 -  2) =      2.37525  eV     1   --> A'             
     e(  3 -  3) =      9.08665  eV     1   --> A'             
     e(  4 -  4) =      9.47438  eV     1   --> A''            
     e(  5 -  5) =     20.46131  eV     1   --> A'             
     e(  6 -  6) =     23.90227  eV     1   --> A''            
     e(  7 -  7) =     24.16998  eV     1   --> A'             
     e(  8 -  8) =     27.19937  eV     1   --> A'             

 **************************************************************************

 **************************************************************************

                    xk=(   0.26250,   0.26250,   0.52500  )

     Band symmetry, C_s (m)     point group:

     e(  1 -  1) =     -4.39602  eV     1   --> A'             
     e(  2 -  2) =      3.74889  eV     1   --> A'             
     e(  3 -  3) =      9.71278  eV     1   --> A''            
     e(  4 -  4) =      9.89097  eV     1   --> A'             
     e(  5 -  5) =     20.41477  eV     1   --> A'             
     e(  6 -  6) =     23.58954  eV     1   --> A''            
     e(  7 -  7) =     23.64003  eV     1   --> A'             
     e(  8 -  8) =     26.89804  eV     1   --> A'             

 **************************************************************************

 **************************************************************************

                    xk=(   0.22500,   0.22500,   0.45000  )

     Band symmetry, C_s (m)     point group:

     e(  1 -  1) =     -5.35803  eV     1   --> A'             
     e(  2 -  2) =      5.25774  eV     1   --> A'             
     e(  3 -  3) =     10.08733  eV     1   --> A''            
     e(  4 -  4) =     10.66228  eV     1   --> A'             
     e(  5 -  5) =     20.28844  eV     1   --> A'             
     e(  6 -  6) =     23.06434  eV     1   --> A'             
     e(  7 -  7) =     23.13896  eV     1   --> A''            
     e(  8 -  8) =     26.86794  eV     1   --> A'             

 **************************************************************************

 **************************************************************************

                    xk=(   0.18750,   0.18750,   0.37500  )

     Band symmetry, C_s (m)     point group:

     e(  1 -  1) =     -6.18904  eV     1   --> A'             
     e(  2 -  2) =      6.85617  eV     1   --> A'             
     e(  3 -  3) =     10.58774  eV     1   --> A''            
     e(  4 -  4) =     11.37533  eV     1   --> A'             
     e(  5 -  5) =     20.06543  eV     1   --> A'             
     e(  6 -  6) =     22.42703  eV     1   --> A'             
     e(  7 -  7) =     22.52086  eV     1   --> A''            
     e(  8 -  8) =     27.01730  eV     1   --> A'             

 **************************************************************************

 **************************************************************************

                    xk=(   0.15000,   0.15000,   0.30000  )

     Band symmetry, C_s (m)     point group:

     e(  1 -  1) =     -6.87749  eV     1   --> A'             
     e(  2 -  2) =      8.50303  eV     1   --> A'             
     e(  3 -  3) =     11.19750  eV     1   --> A''            
     e(  4 -  4) =     12.01464  eV     1   --> A'             
     e(  5 -  5) =     19.77614  eV     1   --> A'             
     e(  6 -  6) =     21.71971  eV     1   --> A'             
     e(  7 -  7) =     21.73672  eV     1   --> A''            
     e(  8 -  8) =     27.15055  eV     1   --> A'             

 **************************************************************************

 **************************************************************************

                    xk=(   0.11250,   0.11250,   0.22500  )

     Band symmetry, C_s (m)     point group:

     e(  1 -  1) =     -7.41733  eV     1   --> A'             
     e(  2 -  2) =     10.13587  eV     1   --> A'             
     e(  3 -  3) =     11.87845  eV     1   --> A''            
     e(  4 -  4) =     12.55632  eV     1   --> A'             
     e(  5 -  5) =     19.47172  eV     1   --> A'             
     e(  6 -  6) =     20.83852  eV     1   --> A''            
     e(  7 -  7) =     20.92660  eV     1   --> A'             
     e(  8 -  8) =     27.10977  eV     1   --> A'             

 **************************************************************************

 **************************************************************************

                    xk=(   0.07500,   0.07500,   0.15000  )

     Band symmetry, C_s (m)     point group:

     e(  1 -  1) =     -7.80496  eV     1   --> A'             
     e(  2 -  2) =     11.65499  eV     1   --> A'             
     e(  3 -  3) =     12.56140  eV     1   --> A''            
     e(  4 -  4) =     12.97904  eV     1   --> A'             
     e(  5 -  5) =     19.20640  eV     1   --> A'             
     e(  6 -  6) =     19.94436  eV     1   --> A''            
     e(  7 -  7) =     20.07597  eV     1   --> A'             
     e(  8 -  8) =     26.94144  eV     1   --> A'             

 **************************************************************************

 **************************************************************************

                    xk=(   0.03750,   0.03750,   0.07500  )

     Band symmetry, C_s (m)     point group:

     e(  1 -  1) =     -8.03830  eV     1   --> A'             
     e(  2 -  2) =     12.85159  eV     1   --> A'             
     e(  3 -  3) =     13.11574  eV     1   --> A''            
     e(  4 -  4) =     13.25030  eV     1   --> A'             
     e(  5 -  5) =     19.02077  eV     1   --> A'             
     e(  6 -  6) =     19.23578  eV     1   --> A''            
     e(  7 -  7) =     19.30278  eV     1   --> A'             
     e(  8 -  8) =     26.77881  eV     1   --> A'             

 **************************************************************************

 **************************************************************************

                    xk=(   0.00000,   0.00000,   0.00000  )

     point group O_h (m-3m) 
     there are 10 classes
     the character table:

       E     8C3   3C2   6C4   6C2'  i     8S6   3s_h  6S4   6s_d 
A_1g   1.00  1.00  1.00  1.00  1.00  1.00  1.00  1.00  1.00  1.00
A_2g   1.00  1.00  1.00 -1.00 -1.00  1.00  1.00  1.00 -1.00 -1.00
E_g    2.00 -1.00  2.00  0.00  0.00  2.00 -1.00  2.00  0.00  0.00
T_1g   3.00  0.00 -1.00  1.00 -1.00  3.00  0.00 -1.00  1.00 -1.00
T_2g   3.00  0.00 -1.00 -1.00  1.00  3.00  0.00 -1.00 -1.00  1.00
A_1u   1.00  1.00  1.00  1.00  1.00 -1.00 -1.00 -1.00 -1.00 -1.00
A_2u   1.00  1.00  1.00 -1.00 -1.00 -1.00 -1.00 -1.00  1.00  1.00
E_u    2.00 -1.00  2.00  0.00  0.00 -2.00  1.00 -2.00  0.00  0.00
T_1u   3.00  0.00 -1.00  1.00 -1.00 -3.00  0.00  1.00 -1.00  1.00
T_2u   3.00  0.00 -1.00 -1.00  1.00 -3.00  0.00  1.00  1.00 -1.00

     the symmetry operations in each class and the name of the first element:

     E        1
                                                                 
     8C3     17   19   20   18   24   21   22   23
                                                                 
     3C2      2    4    3
                                                                 
     6C4      7    8   15   16   12   11
                                                                 
     6C2'     5    6   14   13   10    9
                                                                 
     i       25
                                                                 
     8S6     41   43   44   42   48   45   46   47
                                                                 
     3s_h    26   28   27
                                                                 
     6S4     31   32   39   40   36   35
                                                                 
     6s_d    29   30   38   37   34   33
                                                                 

     Band symmetry, O_h (m-3m)  point group:

     e(  1 -  1) =     -8.11619  eV     1   --> A_1g G_1   G_1+
     e(  2 -  4) =     13.34260  eV     3   --> T_2g G_25' G_5+
     e(  5 -  7) =     18.95449  eV     3   --> T_1u G_15  G_4-
     e(  8 -  8) =     26.71520  eV     1   --> A_2u G_2'  G_2-

 **************************************************************************

 **************************************************************************

                    xk=(   0.05000,   0.05000,   0.05000  )

     point group C_3v (3m)  
     there are  3 classes
     the character table:

       E     2C3   3s_v 
A_1    1.00  1.00  1.00
A_2    1.00  1.00 -1.00
E      2.00 -1.00  0.00

     the symmetry operations in each class and the name of the first element:

     E        1
                                                                 
     2C3      2    3
                                                                 
     3s_v     4    5    6
                                                                 

     Band symmetry, C_3v (3m)   point group:

     e(  1 -  1) =     -8.04695  eV     1   --> A_1  L_1       
     e(  2 -  2) =     12.86509  eV     1   --> A_1  L_1       
     e(  3 -  4) =     13.22077  eV     2   --> E    L_3       
     e(  5 -  6) =     19.11574  eV     2   --> E    L_3       
     e(  7 -  7) =     19.25372  eV     1   --> A_1  L_1       
     e(  8 -  8) =     26.77380  eV     1   --> A_1  L_1       

 **************************************************************************

 **************************************************************************

                    xk=(   0.10000,   0.10000,   0.10000  )

     Band symmetry, C_3v (3m)   point group:

     e(  1 -  1) =     -7.83951  eV     1   --> A_1  L_1       
     e(  2 -  2) =     11.67835  eV     1   --> A_1  L_1       
     e(  3 -  4) =     12.90235  eV     2   --> E    L_3       
     e(  5 -  6) =     19.54123  eV     2   --> E    L_3       
     e(  7 -  7) =     19.90174  eV     1   --> A_1  L_1       
     e(  8 -  8) =     26.94900  eV     1   --> A_1  L_1       

 **************************************************************************

 **************************************************************************

                    xk=(   0.15000,   0.15000,   0.15000  )

     Band symmetry, C_3v (3m)   point group:

     e(  1 -  1) =     -7.49480  eV     1   --> A_1  L_1       
     e(  2 -  2) =     10.14607  eV     1   --> A_1  L_1       
     e(  3 -  4) =     12.47653  eV     2   --> E    L_3       
     e(  5 -  6) =     20.10185  eV     2   --> E    L_3       
     e(  7 -  7) =     20.56802  eV     1   --> A_1  L_1       
     e(  8 -  8) =     27.23222  eV     1   --> A_1  L_1       

 **************************************************************************

 **************************************************************************

                    xk=(   0.20000,   0.20000,   0.20000  )

     Band symmetry, C_3v (3m)   point group:

     e(  1 -  1) =     -7.01452  eV     1   --> A_1  L_1       
     e(  2 -  2) =      8.47366  eV     1   --> A_1  L_1       
     e(  3 -  4) =     12.02549  eV     2   --> E    L_3       
     e(  5 -  6) =     20.67037  eV     2   --> E    L_3       
     e(  7 -  7) =     21.11725  eV     1   --> A_1  L_1       
     e(  8 -  8) =     27.59929  eV     1   --> A_1  L_1       

 **************************************************************************

 **************************************************************************

                    xk=(   0.25000,   0.25000,   0.25000  )

     Band symmetry, C_3v (3m)   point group:

     e(  1 -  1) =     -6.40161  eV     1   --> A_1  L_1       
     e(  2 -  2) =      6.76310  eV     1   --> A_1  L_1       
     e(  3 -  4) =     11.60179  eV     2   --> E    L_3       
     e(  5 -  6) =     21.15399  eV     2   --> E    L_3       
     e(  7 -  7) =     21.52529  eV     1   --> A_1  L_1       
     e(  8 -  8) =     28.00406  eV     1   --> A_1  L_1       

 **************************************************************************

 **************************************************************************

                    xk=(   0.30000,   0.30000,   0.30000  )

     Band symmetry, C_3v (3m)   point group:

     e(  1 -  1) =     -5.66107  eV     1   --> A_1  L_1       
     e(  2 -  2) =      5.07410  eV     1   --> A_1  L_1       
     e(  3 -  4) =     11.23293  eV     2   --> E    L_3       
     e(  5 -  6) =     21.49680  eV     2   --> E    L_3       
     e(  7 -  7) =     21.81712  eV     1   --> A_1  L_1       
     e(  8 -  8) =     28.38904  eV     1   --> A_1  L_1       

 **************************************************************************

 **************************************************************************

                    xk=(   0.35000,   0.35000,   0.35000  )

     Band symmetry, C_3v (3m)   point group:

     e(  1 -  1) =     -4.80275  eV     1   --> A_1  L_1       
     e(  2 -  2) =      3.45309  eV     1   --> A_1  L_1       
     e(  3 -  4) =     10.93602  eV     2   --> E    L_3       
     e(  5 -  6) =     21.69811  eV     2   --> E    L_3       
     e(  7 -  7) =     22.01749  eV     1   --> A_1  L_1       
     e(  8 -  8) =     28.70455  eV     1   --> A_1  L_1       

 **************************************************************************

 **************************************************************************

                    xk=(   0.40000,   0.40000,   0.40000  )

     Band symmetry, C_3v (3m)   point group:

     e(  1 -  1) =     -3.85044  eV     1   --> A_1  L_1       
     e(  2 -  2) =      1.94372  eV     1   --> A_1  L_1       
     e(  3 -  4) =     10.71896  eV     2   --> E    L_3       
     e(  5 -  6) =     21.79249  eV     2   --> E    L_3       
     e(  7 -  7) =     22.14792  eV     1   --> A_1  L_1       
     e(  8 -  8) =     28.91512  eV     1   --> A_1  L_1       

 **************************************************************************

 **************************************************************************

                    xk=(   0.45000,   0.45000,   0.45000  )

     Band symmetry, C_3v (3m)   point group:

     e(  1 -  1) =     -2.88737  eV     1   --> A_1  L_1       
     e(  2 -  2) =      0.64151  eV     1   --> A_1  L_1       
     e(  3 -  4) =     10.58820  eV     2   --> E    L_3       
     e(  5 -  6) =     21.82619  eV     2   --> E    L_3       
     e(  7 -  7) =     22.22214  eV     1   --> A_1  L_1       
     e(  8 -  8) =     29.03080  eV     1   --> A_1  L_1       

 **************************************************************************

 **************************************************************************

                    xk=(   0.50000,   0.50000,   0.50000  )

     zone border point and non-symmorphic group 
     symmetry decomposition not available

 **************************************************************************

 **************************************************************************

                    xk=(   0.47500,   0.47500,   0.47500  )

     point group C_3v (3m)  
     there are  3 classes
     the character table:

       E     2C3   3s_v 
A_1    1.00  1.00  1.00
A_2    1.00  1.00 -1.00
E      2.00 -1.00  0.00

     the symmetry operations in each class and the name of the first element:

     E        1
                                                                 
     2C3      2    3
                                                                 
     3s_v     4    5    6
                                                                 

     Band symmetry, C_3v (3m)   point group:

     e(  1 -  1) =     -2.50096  eV     1   --> A_1  L_1       
     e(  2 -  2) =      0.16977  eV     1   --> A_1  L_1       
     e(  3 -  4) =     10.55507  eV     2   --> E    L_3       
     e(  5 -  6) =     21.83050  eV     2   --> E    L_3       
     e(  7 -  7) =     22.24005  eV     1   --> A_1  L_1       
     e(  8 -  8) =     29.05565  eV     1   --> A_1  L_1       

 **************************************************************************

 **************************************************************************

                    xk=(   0.45000,   0.45000,   0.45000  )

     Band symmetry, C_3v (3m)   point group:

     e(  1 -  1) =     -2.88737  eV     1   --> A_1  L_1       
     e(  2 -  2) =      0.64151  eV     1   --> A_1  L_1       
     e(  3 -  4) =     10.58820  eV     2   --> E    L_3       
     e(  5 -  6) =     21.82619  eV     2   --> E    L_3       
     e(  7 -  7) =     22.22214  eV     1   --> A_1  L_1       
     e(  8 -  8) =     29.03080  eV     1   --> A_1  L_1       

 **************************************************************************

 **************************************************************************

                    xk=(   0.42500,   0.42500,   0.42500  )

     Band symmetry, C_3v (3m)   point group:

     e(  1 -  1) =     -3.35895  eV     1   --> A_1  L_1       
     e(  2 -  2) =      1.25467  eV     1   --> A_1  L_1       
     e(  3 -  4) =     10.64250  eV     2   --> E    L_3       
     e(  5 -  6) =     21.81428  eV     2   --> E    L_3       
     e(  7 -  7) =     22.19140  eV     1   --> A_1  L_1       
     e(  8 -  8) =     28.98159  eV     1   --> A_1  L_1       

 **************************************************************************

 **************************************************************************

                    xk=(   0.40000,   0.40000,   0.40000  )

     Band symmetry, C_3v (3m)   point group:

     e(  1 -  1) =     -3.85044  eV     1   --> A_1  L_1       
     e(  2 -  2) =      1.94372  eV     1   --> A_1  L_1       
     e(  3 -  4) =     10.71896  eV     2   --> E    L_3       
     e(  5 -  6) =     21.79249  eV     2   --> E    L_3       
     e(  7 -  7) =     22.14792  eV     1   --> A_1  L_1       
     e(  8 -  8) =     28.91512  eV     1   --> A_1  L_1       

 **************************************************************************

 **************************************************************************

                    xk=(   0.37500,   0.37500,   0.37500  )

     Band symmetry, C_3v (3m)   point group:

     e(  1 -  1) =     -4.33564  eV     1   --> A_1  L_1       
     e(  2 -  2) =      2.68116  eV     1   --> A_1  L_1       
     e(  3 -  4) =     10.81676  eV     2   --> E    L_3       
     e(  5 -  6) =     21.75568  eV     2   --> E    L_3       
     e(  7 -  7) =     22.09041  eV     1   --> A_1  L_1       
     e(  8 -  8) =     28.82337  eV     1   --> A_1  L_1       

 **************************************************************************

 **************************************************************************

                    xk=(   0.35000,   0.35000,   0.35000  )

     Band symmetry, C_3v (3m)   point group:

     e(  1 -  1) =     -4.80275  eV     1   --> A_1  L_1       
     e(  2 -  2) =      3.45309  eV     1   --> A_1  L_1       
     e(  3 -  4) =     10.93602  eV     2   --> E    L_3       
     e(  5 -  6) =     21.69811  eV     2   --> E    L_3       
     e(  7 -  7) =     22.01749  eV     1   --> A_1  L_1       
     e(  8 -  8) =     28.70455  eV     1   --> A_1  L_1       

 **************************************************************************

 **************************************************************************

                    xk=(   0.32500,   0.32500,   0.32500  )

     Band symmetry, C_3v (3m)   point group:

     e(  1 -  1) =     -5.24567  eV     1   --> A_1  L_1       
     e(  2 -  2) =      4.25282  eV     1   --> A_1  L_1       
     e(  3 -  4) =     11.07483  eV     2   --> E    L_3       
     e(  5 -  6) =     21.61358  eV     2   --> E    L_3       
     e(  7 -  7) =     21.92720  eV     1   --> A_1  L_1       
     e(  8 -  8) =     28.55870  eV     1   --> A_1  L_1       

 **************************************************************************

 **************************************************************************

                    xk=(   0.30000,   0.30000,   0.30000  )

     Band symmetry, C_3v (3m)   point group:

     e(  1 -  1) =     -5.66107  eV     1   --> A_1  L_1       
     e(  2 -  2) =      5.07410  eV     1   --> A_1  L_1       
     e(  3 -  4) =     11.23293  eV     2   --> E    L_3       
     e(  5 -  6) =     21.49680  eV     2   --> E    L_3       
     e(  7 -  7) =     21.81712  eV     1   --> A_1  L_1       
     e(  8 -  8) =     28.38904  eV     1   --> A_1  L_1       

 **************************************************************************

 **************************************************************************

                    xk=(   0.27500,   0.27500,   0.27500  )

     Band symmetry, C_3v (3m)   point group:

     e(  1 -  1) =     -6.04684  eV     1   --> A_1  L_1       
     e(  2 -  2) =      5.91302  eV     1   --> A_1  L_1       
     e(  3 -  4) =     11.40912  eV     2   --> E    L_3       
     e(  5 -  6) =     21.34446  eV     2   --> E    L_3       
     e(  7 -  7) =     21.68393  eV     1   --> A_1  L_1       
     e(  8 -  8) =     28.20186  eV     1   --> A_1  L_1       

 **************************************************************************

 **************************************************************************

                    xk=(   0.25000,   0.25000,   0.25000  )

     Band symmetry, C_3v (3m)   point group:

     e(  1 -  1) =     -6.40161  eV     1   --> A_1  L_1       
     e(  2 -  2) =      6.76310  eV     1   --> A_1  L_1       
     e(  3 -  4) =     11.60179  eV     2   --> E    L_3       
     e(  5 -  6) =     21.15399  eV     2   --> E    L_3       
     e(  7 -  7) =     21.52529  eV     1   --> A_1  L_1       
     e(  8 -  8) =     28.00406  eV     1   --> A_1  L_1       

 **************************************************************************

     BANDS        :      0.34s CPU      0.38s WALL


   This run was terminated on:  23:59:15   5Oct2024            

=------------------------------------------------------------------------------=
   JOB DONE.
=------------------------------------------------------------------------------=
