[Molden Format]
[FREQ]
    0.00
    0.00
    0.00
  374.24
  374.24
  410.67
[FR-COORD]
   Al          0.00000        0.00000        0.00000
   As          2.62500        2.62500        2.62500
[FR-NORM-COORD]
 vibration     1
  -0.57232   0.41527   0.00000
  -0.57232   0.41527   0.00000
 vibration     2
   0.00000   0.00000  -0.70711
   0.00000  -0.00000  -0.70711
 vibration     3
   0.41527   0.57232  -0.00000
   0.41527   0.57232  -0.00000
 vibration     4
   0.00000   0.94085   0.00000
  -0.00000  -0.33882   0.00000
 vibration     5
   0.00000   0.00000  -0.94085
   0.00000   0.00000   0.33882
 vibration     6
   0.94085  -0.00000   0.00000
  -0.33882   0.00000   0.00000
