LAMMPS (23 Jun 2022 - Update 4)
OMP_NUM_THREADS environment is not set. Defaulting to 1 thread. (src/src/comm.cpp:98)
  using 1 OpenMP thread(s) per MPI task
Lattice spacing in x,y,z = 4.04525 4.04525 4.04525
Created orthogonal box = (0 0 0) to (8.0905 8.0905 8.0905)
  1 by 1 by 2 MPI processor grid
Created 32 atoms
  using lattice units in orthogonal box = (0 0 0) to (8.0905 8.0905 8.0905)
  create_atoms CPU = 0.000 seconds
Reading eam/alloy potential file ./Al_mm.eam.fs with DATE: 2007-06-11
Temp                     Press                     Vol                     Etotal
Neighbor list info ...
  update every 1 steps, delay 10 steps, check yes
  max neighbors/atom: 2000, page size: 100000
  master list distance cutoff = 8.5
  ghost atom cutoff = 8.5
  binsize = 4.25, bins = 2 2 2
  1 neighbor lists, perpetual/occasional/extra = 1 0 0
  (1) pair eam/alloy, perpetual
      attributes: half, newton on
      pair build: half/bin/atomonly/newton
      stencil: half/bin/3d
      bin: standard
Setting up Verlet run ...
  Unit style    : metal
  Current step  : 0
  Time step     : 0.001
Per MPI rank memory allocation (min/avg/max) = 3.596 | 3.596 | 3.596 Mbytes
   Step          Time           Temp          PotEng         KinEng         TotEng        c_mytemp      c_mypress        Volume    
         0   0              300           -109.14102      1.2021193     -107.9389       300            2430.0276      529.57331    
      1000   1              607.5197      -106.26222      2.4343706     -103.82785      607.5197       149.55891      550.89896    
      2000   2              685.95066     -105.97211      2.7486485     -103.22346      685.95066      2911.0157      554.11278    
      3000   3              731.45019     -106.06207      2.9309681     -103.1311       731.45019     -2394.0815      555.91273    
      4000   4              884.78946     -106.71095      3.5454084     -103.16555      884.78946      353.30496      551.22828    
      5000   5              659.49084     -105.93542      2.6426223     -103.2928       659.49084     -3769.7392      556.19969    
      6000   6              598.39043     -105.66301      2.3977891     -103.26522      598.39043     -683.4393       556.88251    
      7000   7              784.35326     -106.30362      3.1429541     -103.16066      784.35326     -229.82768      553.14938    
      8000   8              574.54047     -105.54076      2.3022207     -103.23854      574.54047     -2441.7715      558.71711    
      9000   9              839.36467     -106.50868      3.3633884     -103.14529      839.36467     -2793.7341      554.98476    
     10000   10             745.43948     -106.1374       2.9870241     -103.15037      745.43948     -2799.0504      555.62078    
     11000   11             733.10388     -106.15202      2.9375945     -103.21442      733.10388     -3712.2881      555.31682    
     12000   12             776.05514     -106.33191      3.109703      -103.22221      776.05514     -6537.3436      555.85337    
     13000   13             627.81844     -105.80616      2.515709      -103.29045      627.81844      6298.2933      552.61041    
     14000   14             579.0305      -105.6401       2.3202126     -103.31989      579.0305      -2346.647       556.56467    
     15000   15             716.52398     -106.09065      2.8711578     -103.21949      716.52398     -4658.8558      556.84489    
     16000   16             780.07547     -106.36952      3.1258127     -103.24371      780.07547     -1296.6322      554.71176    
     17000   17             816.66165     -106.42751      3.2724159     -103.15509      816.66165     -6922.7017      557.46599    
     18000   18             648.39257     -105.77821      2.5981508     -103.18006      648.39257     -2874.4357      557.4971     
     19000   19             731.06201     -106.11766      2.9294126     -103.18825      731.06201     -2437.4587      554.66288    
     20000   20             729.78666     -106.06575      2.9243022     -103.14144      729.78666     -2472.792       556.80722    
     21000   21             809.77865     -106.40967      3.2448353     -103.16483      809.77865      517.87202      553.42563    
     22000   22             605.01614     -105.73235      2.4243387     -103.30801      605.01614      3780.5259      553.11355    
     23000   23             698.4313      -106.04303      2.7986593     -103.24437      698.4313      -1274.9844      553.64095    
     24000   24             769.02543     -106.37024      3.0815345     -103.28871      769.02543     -3297.8922      555.21315    
     25000   25             702.57432     -106.06138      2.8152606     -103.24612      702.57432      793.66154      554.51779    
     26000   26             744.0637      -106.22928      2.9815112     -103.24777      744.0637       1195.5258      553.843      
     27000   27             810.27068     -106.49562      3.2468069     -103.24881      810.27068     -471.04257      552.75475    
     28000   28             732.54746     -106.20136      2.9353649     -103.266        732.54746     -188.07559      553.97044    
     29000   29             723.0896      -106.01521      2.8974667     -103.11774      723.0896       1632.3582      553.85761    
     30000   30             594.85603     -105.56224      2.3836265     -103.17861      594.85603      1267.3875      555.19275    
     31000   31             683.26842     -105.87605      2.7379006     -103.13815      683.26842     -874.83053      556.8058     
     32000   32             553.34045     -105.40838      2.2172709     -103.1911       553.34045      5599.4372      553.38051    
     33000   33             685.1451      -106.00152      2.7454206     -103.2561       685.1451       2698.1032      553.31771    
     34000   34             792.09021     -106.34861      3.1739565     -103.17466      792.09021     -4548.0917      554.98443    
     35000   35             711.07403     -106.09819      2.8493195     -103.24887      711.07403      207.04816      555.73574    
     36000   36             644.77296     -105.82887      2.5836468     -103.24522      644.77296      1643.2078      554.80147    
     37000   37             687.49099     -105.93001      2.7548207     -103.17519      687.49099      3466.383       553.47951    
     38000   38             635.70768     -105.76421      2.5473217     -103.21689      635.70768      4589.4869      553.02746    
     39000   39             750.85101     -106.18411      3.0087084     -103.1754       750.85101     -3173.7645      556.09318    
     40000   40             738.63498     -106.18624      2.959758      -103.22649      738.63498      1011.563       553.74693    
     41000   41             653.98357     -105.77273      2.6205543     -103.15217      653.98357      2420.0141      554.40804    
     42000   42             616.82692     -105.7316       2.4716653     -103.25993      616.82692      5125.8615      552.22851    
     43000   43             767.20779     -106.23552      3.0742511     -103.16127      767.20779     -920.77358      554.75015    
     44000   44             754.64246     -106.16916      3.023901      -103.14526      754.64246     -1944.4551      555.83349    
     45000   45             616.41501     -105.71636      2.4700147     -103.24634      616.41501     -1652.6653      556.4153     
     46000   46             717.32283     -106.0233       2.8743588     -103.14894      717.32283     -143.71432      555.69884    
     47000   47             627.98058     -105.73367      2.5163587     -103.21731      627.98058      1608.8151      554.82847    
     48000   48             781.84716     -106.25934      3.132912      -103.12642      781.84716     -929.92258      554.52731    
     49000   49             779.81072     -106.29169      3.1247519     -103.16694      779.81072     -8591.2718      558.88215    
     50000   50             642.81791     -105.79811      2.5758128     -103.2223       642.81791      2893.9127      552.99568    
     51000   51             696.44892     -105.9827       2.7907157     -103.19198      696.44892      4539.0754      552.39696    
     52000   52             587.72503     -105.59774      2.3550521     -103.24269      587.72503      4492.5269      553.04022    
     53000   53             810.97798     -106.49929      3.2496411     -103.24965      810.97798     -844.11439      552.91034    
     54000   54             723.36245     -106.09866      2.89856       -103.2001       723.36245      2173.7346      553.35946    
     55000   55             647.38181     -105.84417      2.5941007     -103.25007      647.38181     -3793.6473      555.85488    
     56000   56             746.30356     -106.03062      2.9904865     -103.04013      746.30356     -5074.1277      557.28524    
     57000   57             690.27799     -105.97245      2.7659884     -103.20647      690.27799      3383.2831      552.72095    
     58000   58             694.33937     -105.99383      2.7822627     -103.21157      694.33937      491.00287      555.30053    
     59000   59             745.76164     -106.22629      2.988315      -103.23797      745.76164     -1591.6407      555.16893    
     60000   60             733.95222     -106.14611      2.9409939     -103.20511      733.95222     -6978.9248      558.70615    
     61000   61             687.23734     -105.92332      2.7538043     -103.16951      687.23734      1211.76        555.33472    
     62000   62             687.62993     -105.83748      2.7553775     -103.08211      687.62993      5753.9792      551.91593    
     63000   63             650.00187     -105.70409      2.6045994     -103.09949      650.00187      1021.8627      555.38063    
     64000   64             738.61833     -106.18152      2.9596913     -103.22183      738.61833     -1471.765       555.1074     
     65000   65             693.19362     -106.00198      2.7776716     -103.22431      693.19362      258.79975      554.81678    
     66000   66             700.1325      -105.98639      2.8054761     -103.18091      700.1325      -2076.9923      555.95262    
     67000   67             891.77225     -106.73941      3.5733889     -103.16602      891.77225     -12340.594      558.57462    
     68000   68             718.38377     -106.03665      2.8786101     -103.15804      718.38377     -1380.6932      557.2298     
     69000   69             615.93377     -105.69131      2.4680863     -103.22322      615.93377      6839.722       552.29077    
     70000   70             676.5155      -105.95099      2.7108412     -103.24015      676.5155      -860.9151       555.70999    
     71000   71             541.69507     -105.36676      2.1706071     -103.19615      541.69507      3764.4951      555.78324    
     72000   72             627.6269      -105.67353      2.5149415     -103.15858      627.6269       6562.1178      554.47208    
     73000   73             755.62659     -106.27312      3.0278445     -103.24527      755.62659     -1087.8042      553.034      
     74000   74             701.36176     -106.02282      2.8104018     -103.21242      701.36176     -3606.7028      558.1703     
     75000   75             794.08327     -106.31575      3.1819429     -103.13381      794.08327     -8451.9982      559.16779    
     76000   76             679.21644     -105.89124      2.7216641     -103.16958      679.21644      7357.6444      550.46445    
     77000   77             637.82705     -105.7582       2.5558141     -103.20238      637.82705     -925.78261      555.26776    
     78000   78             745.02413     -106.15594      2.9853597     -103.17058      745.02413     -3288.8691      556.47374    
     79000   79             692.43279     -106.01302      2.7746229     -103.2384       692.43279      5828.7551      550.36802    
     80000   80             499.88576     -105.20548      2.0030745     -103.2024       499.88576      9139.3799      552.3255     
     81000   81             744.92545     -106.27823      2.9849643     -103.29327      744.92545      1639.0515      553.20928    
     82000   82             729.0573      -106.17022      2.9213796     -103.24884      729.0573       5107.2891      550.22507    
     83000   83             689.76921     -106.07116      2.7639497     -103.30721      689.76921     -1004.695       553.61621    
     84000   84             703.13039     -105.96443      2.8174888     -103.14694      703.13039     -8959.6002      560.5293     
     85000   85             708.54091     -106.14831      2.8391691     -103.30915      708.54091     -2614.3869      555.85933    
     86000   86             709.22742     -106.13962      2.84192       -103.2977       709.22742     -339.52428      555.70821    
     87000   87             708.41711     -106.07667      2.838673      -103.238        708.41711     -1821.9635      555.25492    
     88000   88             733.36436     -106.11391      2.9386383     -103.17527      733.36436     -5757.9512      559.68403    
     89000   89             633.27166     -105.72724      2.5375604     -103.18968      633.27166     -2460.1576      557.60038    
     90000   90             724.1561      -106.03136      2.9017402     -103.12962      724.1561       1189.8765      553.8585     
     91000   91             556.7415      -105.4451       2.2308991     -103.2142       556.7415       7227.996       552.59141    
     92000   92             670.9611      -105.95211      2.6885844     -103.26353      670.9611       1037.6247      554.86386    
     93000   93             681.94306     -105.96416      2.7325898     -103.23157      681.94306     -1868.7849      556.42141    
     94000   94             721.36394     -106.09999      2.8905518     -103.20943      721.36394     -2812.8388      555.26159    
     95000   95             669.03601     -105.78124      2.6808704     -103.10037      669.03601      4212.6372      553.55178    
     96000   96             542.78202     -105.44341      2.1749625     -103.26845      542.78202      6489.5215      553.17995    
     97000   97             586.13612     -105.53447      2.3486852     -103.18579      586.13612      5234.1269      553.46713    
     98000   98             599.45542     -105.63009      2.4020565     -103.22804      599.45542      1065.1335      555.43686    
     99000   99             655.77998     -105.82322      2.6277527     -103.19547      655.77998      123.797        556.39896    
    100000   100            754.27261     -106.16         3.022419      -103.13758      754.27261     -6030.9474      557.03779    
    101000   101            813.80391     -106.43973      3.2609648     -103.17877      813.80391     -280.11682      553.18912    
    102000   102            575.23551     -105.50169      2.3050058     -103.19668      575.23551      640.73386      556.93619    
    103000   103            734.24063     -106.10247      2.9421495     -103.16032      734.24063     -3482.1542      556.1383     
    104000   104            734.45837     -106.11181      2.9430221     -103.16878      734.45837      385.01354      553.73366    
    105000   105            834.79407     -106.40107      3.3450737     -103.05599      834.79407      498.35952      551.1807     
    106000   106            805.75577     -106.23036      3.2287153     -103.00164      805.75577      2498.095       552.19468    
    107000   107            652.68154     -105.81456      2.615337      -103.19922      652.68154      4578.7602      554.29456    
    108000   108            588.16395     -105.52368      2.3568109     -103.16687      588.16395      6020.0912      554.61281    
    109000   109            672.97805     -105.8481       2.6966664     -103.15143      672.97805      743.61021      556.00871    
    110000   110            705.1183      -105.98846      2.8254545     -103.163        705.1183       286.16877      554.62159    
    111000   111            798.02924     -106.3657       3.1977546     -103.16794      798.02924     -533.83204      553.65086    
    112000   112            719.789       -106.02847      2.884241      -103.14422      719.789       -1630.163       555.13863    
    113000   113            697.93793     -106.02629      2.7966823     -103.22961      697.93793      254.151        554.80673    
    114000   114            604.18088     -105.6201       2.4209917     -103.1991       604.18088      4855.254       554.23642    
    115000   115            906.21445     -106.84201      3.6312597     -103.21075      906.21445     -11417.121      557.13615    
    116000   116            666.98161     -105.90588      2.6726383     -103.23324      666.98161      3951.4445      553.15106    
    117000   117            663.88503     -105.89298      2.6602301     -103.23275      663.88503      3508.0673      552.67896    
    118000   118            615.56457     -105.75504      2.4666069     -103.28844      615.56457      502.29864      554.5565     
    119000   119            773.96357     -106.22794      3.1013219     -103.12662      773.96357     -5407.9272      556.649      
    120000   120            734.73115     -106.2112       2.9441151     -103.26709      734.73115     -642.39238      552.42003    
    121000   121            670.5728      -105.87696      2.6870284     -103.18994      670.5728       318.93601      555.31993    
    122000   122            645.21465     -105.81388      2.5854167     -103.22846      645.21465      3568.7809      553.86539    
    123000   123            657.98381     -105.78789      2.6365836     -103.15131      657.98381      3004.5862      553.89746    
    124000   124            678.8621      -105.96363      2.7202442     -103.24338      678.8621       262.13383      554.55603    
    125000   125            730.09664     -106.16147      2.9255443     -103.23593      730.09664      846.3013       553.02757    
    126000   126            709.4042      -106.05007      2.8426284     -103.20744      709.4042      -611.59662      555.75773    
    127000   127            577.17563     -105.54831      2.31278       -103.23553      577.17563      5871.1446      553.6561     
    128000   128            669.58274     -105.87835      2.6830612     -103.19529      669.58274     -835.2476       555.76578    
    129000   129            803.95955     -106.4072       3.2215178     -103.18568      803.95955     -216.46577      552.55316    
    130000   130            583.75361     -105.46622      2.3391384     -103.12708      583.75361      3078.7943      554.75979    
    131000   131            696.66527     -106.01036      2.7915827     -103.21878      696.66527     -4390.978       557.51724    
    132000   132            671.23964     -105.81183      2.6897005     -103.12213      671.23964     -1705.5865      557.30719    
    133000   133            684.97318     -105.97435      2.7447317     -103.22961      684.97318     -1080.2731      555.23699    
    134000   134            697.28737     -106.04032      2.7940755     -103.24625      697.28737     -734.01731      555.67505    
    135000   135            747.90371     -106.21959      2.9968984     -103.22269      747.90371     -881.62606      554.10023    
    136000   136            688.62889     -105.93197      2.7593804     -103.17259      688.62889     -287.79322      556.52217    
    137000   137            712.93886     -106.07741      2.856792      -103.22061      712.93886      5187.702       552.09085    
    138000   138            726.96721     -106.134        2.9130045     -103.221        726.96721     -645.53388      554.73174    
    139000   139            600.5009      -105.65201      2.4062459     -103.24576      600.5009      -3732.9476      557.53992    
    140000   140            630.19937     -105.69398      2.5252495     -103.16873      630.19937     -214.48256      556.40302    
    141000   141            722.00073     -106.09228      2.8931035     -103.19917      722.00073      1595.812       553.12998    
    142000   142            774.23973     -106.29171      3.1024285     -103.18928      774.23973     -5416.7414      555.97504    
    143000   143            594.84732     -105.60734      2.3835916     -103.22375      594.84732      327.05942      556.6517     
    144000   144            812.82458     -106.35283      3.2570405     -103.09579      812.82458     -2055.1287      554.45217    
    145000   145            606.65785     -105.59073      2.4309171     -103.15981      606.65785      4726.1326      553.46274    
    146000   146            637.87163     -105.75108      2.5559928     -103.19509      637.87163     -2044.9045      556.09656    
    147000   147            793.11467     -106.37716      3.1780616     -103.1991       793.11467     -9140.7284      558.4075     
    148000   148            725.83738     -106.17414      2.9084772     -103.26567      725.83738      1445.8509      553.605      
    149000   149            678.40314     -105.95838      2.7184051     -103.23997      678.40314      1024.6327      553.76931    
    150000   150            692.23687     -105.88339      2.7738378     -103.10956      692.23687      1865.4502      555.60905    
    151000   151            766.05519     -106.30159      3.0696326     -103.23196      766.05519     -2823.7924      555.06681    
    152000   152            630.38518     -105.74671      2.5259941     -103.22071      630.38518      5367.9734      553.78902    
    153000   153            685.63973     -105.97067      2.7474026     -103.22327      685.63973     -77.872249      555.0325     
    154000   154            737.8773      -106.17176      2.9567219     -103.21504      737.8773       677.28127      553.94573    
    155000   155            644.09683     -105.79478      2.5809375     -103.21385      644.09683     -3295.7967      556.63028    
    156000   156            637.34052     -105.80042      2.5538646     -103.24656      637.34052      3834.2203      552.92375    
    157000   157            583.62446     -105.55334      2.3386209     -103.21472      583.62446      6165.5124      553.61055    
    158000   158            699.31512     -105.93383      2.8022008     -103.13163      699.31512     -1951.351       555.9293     
    159000   159            631.99642     -105.73292      2.5324504     -103.20047      631.99642      4193.3077      553.77374    
    160000   160            767.01254     -106.26254      3.0734687     -103.18907      767.01254     -3163.7013      556.35448    
    161000   161            760.91965     -106.19452      3.0490541     -103.14547      760.91965      4104.0206      552.98833    
    162000   162            712.9504      -106.05566      2.8568382     -103.19882      712.9504      -2887.5508      556.85288    
    163000   163            770.8998      -106.298        3.0890452     -103.20895      770.8998      -6132.5299      556.41556    
    164000   164            584.19654     -105.63728      2.3409132     -103.29637      584.19654      4118.1658      554.28346    
    165000   165            766.67031     -106.28152      3.0720974     -103.20942      766.67031      98.738865      553.48479    
    166000   166            698.8795      -106.03271      2.8004552     -103.23226      698.8795      -1183.3351      554.87235    
    167000   167            770.66932     -106.25618      3.0881217     -103.16806      770.66932     -4656.4771      556.24893    
    168000   168            843.40131     -106.57023      3.3795635     -103.19066      843.40131     -9683.9337      558.63174    
    169000   169            748.00601     -106.17295      2.9973083     -103.17564      748.00601     -1852.5955      556.89543    
    170000   170            630.01593     -105.84954      2.5245145     -103.32502      630.01593      2876.2416      555.05487    
    171000   171            598.60578     -105.5595       2.398652      -103.16085      598.60578      1474.0423      558.30379    
    172000   172            656.5438      -105.86448      2.6308134     -103.23366      656.5438      -1216.3155      556.83677    
    173000   173            688.52601     -105.97894      2.7589681     -103.21998      688.52601     -2060.0894      555.96944    
    174000   174            633.33095     -105.72333      2.537798      -103.18553      633.33095      3962.7677      552.61685    
    175000   175            647.2275      -105.83035      2.5934823     -103.23687      647.2275       2944.4389      552.94674    
    176000   176            634.8599      -105.78139      2.5439245     -103.23746      634.8599       2242.8668      553.83234    
    177000   177            629.22091     -105.76176      2.5213288     -103.24043      629.22091     -64.651041      554.86762    
    178000   178            815.18015     -106.45132      3.2664794     -103.18484      815.18015      3464.7579      550.85516    
    179000   179            624.43579     -105.84015      2.5021545     -103.33799      624.43579      1353.2112      554.15054    
    180000   180            746.25192     -106.21565      2.9902796     -103.22537      746.25192     -2217.6312      553.80661    
    181000   181            670.48516     -105.95273      2.6866773     -103.26605      670.48516      1285.952       554.0105     
    182000   182            710.54965     -106.05966      2.8472183     -103.21245      710.54965      3774.0138      552.95705    
    183000   183            704.97585     -106.08712      2.8248837     -103.26224      704.97585     -120.05649      554.90571    
    184000   184            629.57064     -105.73839      2.5227301     -103.21566      629.57064      1134.963       554.39873    
    185000   185            665.79762     -105.81538      2.667894      -103.14749      665.79762      4372.9988      553.75688    
    186000   186            736.26019     -106.0933       2.9502421     -103.14306      736.26019      483.83026      553.9038     
    187000   187            666.37363     -105.80001      2.6702021     -103.12981      666.37363      1031.323       553.74491    
    188000   188            856.00083     -106.56392      3.4300505     -103.13387      856.00083     -7237.4782      557.24182    
    189000   189            690.09764     -105.87354      2.7652658     -103.10827      690.09764      954.33178      556.14829    
    190000   190            574.02987     -105.55145      2.3001747     -103.25127      574.02987      5497.7838      552.57487    
    191000   191            707.9598      -106.01859      2.8368406     -103.18175      707.9598      -4402.0211      556.8473     
    192000   192            788.95197     -106.34085      3.1613814     -103.17947      788.95197      1360.2894      552.42914    
    193000   193            783.58402     -106.37311      3.1398717     -103.23324      783.58402      1026.1676      552.47697    
    194000   194            701.22102     -106.07421      2.8098378     -103.26437      701.22102      1425.7367      553.06767    
    195000   195            700.7281      -106.04996      2.8078627     -103.2421       700.7281       960.77034      554.95287    
    196000   196            740.57935     -106.1936       2.9675492     -103.22605      740.57935      1218.1105      552.66029    
    197000   197            760.73385     -106.1685       3.0483096     -103.12019      760.73385     -1046.5342      555.40908    
    198000   198            716.30859     -106.08843      2.8702947     -103.21813      716.30859     -1633.7165      554.22642    
    199000   199            632.3568      -105.73319      2.5338945     -103.1993       632.3568       6094.9131      552.86728    
    200000   200            692.51641     -106.0017       2.7749579     -103.22674      692.51641      827.84737      553.44875    
    201000   201            813.22616     -106.40338      3.2586497     -103.14473      813.22616     -5406.014       557.65631    
    202000   202            718.20635     -106.06414      2.8778991     -103.18624      718.20635      3939.6147      553.10834    
    203000   203            738.31794     -106.17459      2.9584876     -103.21611      738.31794     -1650.0075      554.31246    
    204000   204            535.53161     -105.37111      2.1459097     -103.2252       535.53161      5871.4382      553.39087    
    205000   205            733.67515     -106.18281      2.9398836     -103.24293      733.67515     -1984.2782      554.63728    
    206000   206            757.30459     -106.25721      3.0345683     -103.22265      757.30459     -467.39291      553.73823    
    207000   207            622.10805     -105.67838      2.4928271     -103.18555      622.10805      2303.4564      554.78392    
    208000   208            776.06812     -106.28823      3.109755      -103.17847      776.06812      1371.8334      553.19355    
    209000   209            694.57542     -106.01189      2.7832085     -103.22868      694.57542     -1478.0421      555.28816    
    210000   210            611.10909     -105.72172      2.4487535     -103.27296      611.10909      7396.1941      552.58113    
    211000   211            606.7562      -105.65367      2.4313112     -103.22236      606.7562       5373.4037      551.93014    
    212000   212            664.64754     -105.92407      2.6632856     -103.26079      664.64754      4386.4963      552.04532    
    213000   213            711.22505     -106.09898      2.8499246     -103.24905      711.22505     -3952.0243      557.08161    
    214000   214            736.10804     -106.17073      2.9496324     -103.2211       736.10804     -190.52878      553.80728    
    215000   215            685.57191     -105.91537      2.7471309     -103.16824      685.57191     -1322.7917      556.28125    
    216000   216            686.75826     -105.87107      2.7518846     -103.11919      686.75826     -3497.6351      558.58149    
    217000   217            743.68542     -106.18889      2.9799954     -103.2089       743.68542      1838.5351      553.29525    
    218000   218            654.07884     -105.80981      2.6209361     -103.18888      654.07884      1736.821       554.77612    
    219000   219            678.41956     -105.9694       2.718471      -103.25092      678.41956      3729.3069      552.56329    
    220000   220            870.41964     -106.58023      3.4878276     -103.0924       870.41964     -3763.7205      554.43054    
    221000   221            667.28059     -105.88218      2.6738364     -103.20835      667.28059     -1481.7944      557.4391     
    222000   222            767.60034     -106.3005       3.0758241     -103.22467      767.60034      2217.8991      551.67308    
    223000   223            687.05713     -105.96734      2.7530822     -103.21426      687.05713      2286.8471      553.84792    
    224000   224            719.09809     -106.20754      2.8814724     -103.32606      719.09809     -2385.5293      555.37855    
    225000   225            855.89354     -106.59901      3.4296206     -103.16939      855.89354     -9205.9054      557.5275     
    226000   226            611.45226     -105.71763      2.4501286     -103.2675       611.45226      3109.3231      552.7709     
    227000   227            647.62048     -105.81379      2.595057      -103.21873      647.62048      1036.7253      555.20543    
    228000   228            706.16408     -106.04562      2.829645      -103.21598      706.16408     -942.16147      554.34819    
    229000   229            605.95824     -105.73384      2.4281137     -103.30572      605.95824     -2134.7471      556.25456    
    230000   230            602.68655     -105.67419      2.4150039     -103.25919      602.68655      1441.1337      554.7168     
    231000   231            791.39265     -106.41436      3.1711614     -103.24319      791.39265     -6586.9788      556.50961    
    232000   232            650.88895     -105.83013      2.608154      -103.22198      650.88895     -1921.1223      555.59929    
    233000   233            667.16893     -105.88207      2.6733889     -103.20868      667.16893      2078.5255      552.80161    
    234000   234            826.27259     -106.48568      3.3109276     -103.17475      826.27259     -6908.6599      557.15281    
    235000   235            562.88195     -105.47         2.2555043     -103.21449      562.88195      253.93345      557.79239    
    236000   236            660.04025     -105.85746      2.6448238     -103.21264      660.04025     -1820.588       555.5896     
    237000   237            884.30366     -106.67347      3.5434618     -103.13001      884.30366     -9229.7689      556.33987    
    238000   238            665.8057      -105.87146      2.6679264     -103.20353      665.8057      -2309.1398      556.05688    
    239000   239            841.6093      -106.59056      3.3723827     -103.21817      841.6093      -5060.9428      554.47566    
    240000   240            637.12982     -105.78756      2.5530203     -103.23454      637.12982      3785.3548      553.12486    
    241000   241            618.87759     -105.64541      2.4798824     -103.16553      618.87759      727.73857      555.35826    
    242000   242            653.23537     -105.85504      2.6175563     -103.23749      653.23537      3731.3679      552.23057    
    243000   243            640.46812     -105.79874      2.566397      -103.23235      640.46812     -142.01551      556.84172    
    244000   244            727.34524     -106.19115      2.9145193     -103.27663      727.34524      1592.453       552.88322    
    245000   245            815.29967     -106.48381      3.2669584     -103.21685      815.29967     -7.0756203      552.45778    
    246000   246            590.36955     -105.52589      2.3656489     -103.16024      590.36955     -2278.0869      556.66424    
    247000   247            704.72205     -106.03535      2.8238667     -103.21148      704.72205     -4325.9765      557.40377    
    248000   248            701.26234     -106.04936      2.8100034     -103.23936      701.26234      8733.2705      549.61212    
    249000   249            622.96104     -105.8501       2.4962451     -103.35386      622.96104      3231.7906      553.00902    
    250000   250            744.1476      -106.26314      2.9818474     -103.2813       744.1476      -1394.9154      554.75956    
    251000   251            698.53814     -106.00694      2.7990874     -103.20786      698.53814     -1861.9871      555.94405    
    252000   252            723.37924     -106.16258      2.8986273     -103.26395      723.37924      1056.0126      553.04471    
    253000   253            761.3618      -106.28468      3.0508258     -103.23385      761.3618      -1055.7369      555.42478    
    254000   254            568.08237     -105.53571      2.2763427     -103.25937      568.08237      4540.0254      555.15643    
    255000   255            672.98618     -105.98577      2.696699      -103.28907      672.98618      1786.7245      554.10966    
    256000   256            673.02234     -105.96343      2.6968439     -103.26659      673.02234     -4287.4634      557.89738    
    257000   257            697.23994     -106.03464      2.7938854     -103.24075      697.23994      2719.5403      551.25113    
    258000   258            787.5346      -106.31379      3.1557019     -103.15809      787.5346       5347.4436      549.2601     
    259000   259            667.48029     -105.89072      2.6746366     -103.21608      667.48029      4665.8086      552.54452    
    260000   260            731.01837     -106.10454      2.9292378     -103.1753       731.01837     -5850.276       559.44512    
    261000   261            745.05285     -106.20613      2.9854748     -103.22065      745.05285     -3561.6623      555.82933    
    262000   262            670.8045      -105.90821      2.6879569     -103.22026      670.8045       379.26853      555.55       
    263000   263            745.66506     -106.16417      2.987928      -103.17624      745.66506     -2142.5188      555.69521    
    264000   264            700.60708     -106.08115      2.8073778     -103.27377      700.60708     -3962.9524      557.56772    
    265000   265            650.0391      -105.83392      2.6047486     -103.22917      650.0391      -1409.3923      557.41241    
    266000   266            555.51847     -105.4683       2.2259983     -103.24231      555.51847      2787.1589      556.85182    
    267000   267            749.04762     -106.20912      3.0014821     -103.20764      749.04762     -5925.0525      556.56009    
    268000   268            733.30409     -106.10415      2.9383968     -103.16575      733.30409      4904.5679      552.73597    
    269000   269            766.28122     -106.32741      3.0705383     -103.25687      766.28122     -2217.9471      554.05795    
    270000   270            763.30184     -106.32033      3.0585997     -103.26173      763.30184     -2251.0802      555.4347     
    271000   271            846.20545     -106.60712      3.3907998     -103.21632      846.20545     -7682.2965      556.92734    
    272000   272            699.41621     -106.0359       2.8026059     -103.23329      699.41621     -2639.2015      557.41242    
    273000   273            618.87265     -105.61448      2.4798626     -103.13461      618.87265      5089.8335      555.47994    
    274000   274            765.87231     -106.28288      3.0688998     -103.21398      765.87231     -2753.1425      554.84244    
    275000   275            708.31263     -106.08756      2.8382544     -103.24931      708.31263     -5664.6013      558.82209    
    276000   276            722.14916     -106.02553      2.8936983     -103.13183      722.14916     -3332.6057      557.1264     
    277000   277            553.71042     -105.45217      2.2187534     -103.23341      553.71042      9402.8777      553.15074    
    278000   278            786.12864     -106.38036      3.1500681     -103.23029      786.12864     -3678.3306      555.8196     
    279000   279            596.28425     -105.61712      2.3893494     -103.22777      596.28425      7464.6209      551.27287    
    280000   280            674.84874     -105.99827      2.7041624     -103.29411      674.84874      98.198631      554.81621    
    281000   281            769.98267     -106.27506      3.0853702     -103.18969      769.98267     -5833.7971      556.03193    
    282000   282            534.53639     -105.36261      2.1419218     -103.22069      534.53639      10233.123      550.50817    
    283000   283            663.82989     -105.84592      2.6600092     -103.18591      663.82989     -663.82784      555.32445    
    284000   284            851.73917     -106.66108      3.4129738     -103.24811      851.73917     -7486.4522      556.82854    
    285000   285            765.24196     -106.28506      3.0663739     -103.21869      765.24196     -1150.5727      553.68658    
    286000   286            529.58718     -105.36413      2.12209       -103.24204      529.58718      4845.8598      554.29363    
    287000   287            601.77629     -105.59284      2.4113564     -103.18149      601.77629      6807.5153      552.90668    
    288000   288            706.13969     -106.0105       2.8295473     -103.18095      706.13969     -26.754942      554.24594    
    289000   289            719.38218     -106.06967      2.8826108     -103.18706      719.38218     -3530.015       557.20843    
    290000   290            657.85299     -105.84103      2.6360594     -103.20497      657.85299     -4946.4822      558.82987    
    291000   291            774.90804     -106.33239      3.1051065     -103.22729      774.90804     -5970.491       558.17675    
    292000   292            672.80378     -105.87327      2.6959681     -103.17731      672.80378      4112.2156      553.49864    
    293000   293            792.71426     -106.38347      3.1764572     -103.20701      792.71426     -1309.9457      554.18719    
    294000   294            703.29317     -106.00744      2.8181411     -103.1893       703.29317     -4066.3423      556.33429    
    295000   295            617.38831     -105.71806      2.4739148     -103.24415      617.38831      3843.6257      554.80791    
    296000   296            667.81056     -105.84452      2.67596       -103.16856      667.81056     -8296.8028      560.69899    
    297000   297            778.3503      -106.33906      3.1188998     -103.22016      778.3503       2504.493       552.03959    
    298000   298            676.42574     -105.9531       2.7104816     -103.24261      676.42574     -1539.9113      555.64278    
    299000   299            833.02404     -106.51523      3.3379811     -103.17725      833.02404     -7658.7573      556.66436    
    300000   300            777.02902     -106.34656      3.1136054     -103.23295      777.02902     -346.36672      553.87435    
    301000   301            802.40443     -106.41611      3.2152863     -103.20082      802.40443     -4587.7454      555.97964    
    302000   302            664.34903     -105.87325      2.6620894     -103.21116      664.34903      1308.7491      555.2241     
    303000   303            618.82774     -105.67101      2.4796827     -103.19133      618.82774      1244.1172      555.01672    
    304000   304            635.53527     -105.72332      2.5466308     -103.17669      635.53527      871.92938      554.92918    
    305000   305            732.16143     -106.08477      2.9338181     -103.15095      732.16143      2343.7481      552.25699    
    306000   306            796.90854     -106.34262      3.1932639     -103.14936      796.90854     -1114.5831      553.41318    
    307000   307            710.19426     -106.05892      2.8457942     -103.21313      710.19426     -536.4092       554.10618    
    308000   308            596.17347     -105.63376      2.3889056     -103.24485      596.17347      6944.5566      552.27829    
    309000   309            969.30611     -107.08014      3.8840721     -103.19607      969.30611     -11662.177      557.79628    
    310000   310            683.66027     -106.02922      2.7394708     -103.28975      683.66027     -3096.4725      557.80051    
    311000   311            638.48836     -105.71873      2.5584641     -103.16027      638.48836     -3038.7936      557.35191    
    312000   312            654.32711     -105.81868      2.6219309     -103.19675      654.32711      1253.8188      555.07783    
    313000   313            628.14871     -105.77664      2.5170324     -103.25961      628.14871      1853.4214      555.35293    
    314000   314            866.02519     -106.66812      3.4702188     -103.1979       866.02519     -13349.5        559.93207    
    315000   315            826.24805     -106.46561      3.3108292     -103.15478      826.24805     -2660.7407      554.25359    
    316000   316            686.10126     -105.96907      2.749252      -103.21982      686.10126      2484.9424      552.27633    
    317000   317            685.26742     -106.01922      2.7459107     -103.27331      685.26742      24.994212      554.00288    
    318000   318            695.93477     -106.07342      2.7886555     -103.28476      695.93477      1956.0483      554.77632    
    319000   319            765.7613      -106.27055      3.0684549     -103.2021       765.7613       1337.9296      553.08895    
    320000   320            596.20853     -105.64843      2.389046      -103.25938      596.20853      2592.8676      553.09023    
    321000   321            687.36727     -106.01518      2.754325      -103.26085      687.36727      2315.3051      554.38621    
    322000   322            673.44344     -105.91124      2.6985313     -103.2127       673.44344      1609.4239      553.52411    
    323000   323            699.93727     -106.00112      2.8046938     -103.19643      699.93727      3611.7531      554.1034     
    324000   324            631.75407     -105.72896      2.5314793     -103.19748      631.75407      197.58119      553.777      
    325000   325            543.47689     -105.3594       2.177747      -103.18165      543.47689     -740.4343       558.50537    
    326000   326            878.92415     -106.7377       3.5219058     -103.21579      878.92415     -4723.4623      553.96008    
    327000   327            791.65505     -106.38433      3.1722129     -103.21211      791.65505     -63.867349      553.38496    
    328000   328            673.97168     -105.88675      2.700648      -103.1861       673.97168      1839.5319      554.81044    
    329000   329            558.18905     -105.51005      2.2366995     -103.27335      558.18905      3223.2762      554.94146    
    330000   330            758.44208     -106.15299      3.0391263     -103.11387      758.44208     -348.7488       555.47064    
    331000   331            831.21383     -106.49467      3.3307274     -103.16394      831.21383     -6964.4395      556.64175    
    332000   332            694.56976     -105.99355      2.7831858     -103.21037      694.56976     -781.03424      557.15886    
    333000   333            657.56868     -105.83606      2.6349201     -103.20114      657.56868      1802.7388      555.95961    
    334000   334            646.78774     -105.80243      2.5917202     -103.21071      646.78774      8707.1891      550.82012    
    335000   335            734.80724     -106.1504       2.94442       -103.20598      734.80724     -3661.0166      555.8722     
    336000   336            645.30922     -105.9324       2.5857957     -103.34661      645.30922     -3262.8914      556.72254    
    337000   337            734.36668     -106.17446      2.9426547     -103.23181      734.36668     -765.63855      553.51168    
    338000   338            671.33673     -105.92478      2.6900896     -103.23469      671.33673     -31.8782        555.45607    
    339000   339            688.24715     -105.95594      2.7578507     -103.19809      688.24715      3357.1926      553.2017     
    340000   340            721.19593     -106.10753      2.8898786     -103.21765      721.19593     -525.61348      555.25978    
    341000   341            834.55244     -106.57323      3.3441054     -103.22913      834.55244     -5368.7028      554.71553    
    342000   342            720.00053     -106.0667       2.8850886     -103.18161      720.00053      1842.5223      552.39377    
    343000   343            590.06489     -105.55283      2.3644281     -103.1884       590.06489     -242.80515      556.55656    
    344000   344            666.9909      -105.9668       2.6726755     -103.29413      666.9909      -562.95637      555.10701    
    345000   345            657.74134     -105.93682      2.635612      -103.3012       657.74134      1788.6061      553.16432    
    346000   346            738.95244     -106.1907       2.9610301     -103.22967      738.95244     -3824.6789      555.19869    
    347000   347            704.83455     -106.04836      2.8243175     -103.22405      704.83455      532.86911      553.05107    
    348000   348            690.11127     -106.00052      2.7653204     -103.2352       690.11127     -1103.9356      553.5848     
    349000   349            698.52915     -106.00821      2.7990514     -103.20916      698.52915      7845.437       550.15169    
    350000   350            650.41985     -105.85523      2.6062743     -103.24896      650.41985      6679.0192      551.64691    
    351000   351            724.87009     -106.17225      2.9046012     -103.26765      724.87009     -3941.2072      556.7655     
    352000   352            715.43631     -106.05513      2.8667994     -103.18833      715.43631     -3714.6128      555.82438    
    353000   353            606.85849     -105.70047      2.4317211     -103.26875      606.85849      4641.9807      554.29874    
    354000   354            692.20398     -106.03148      2.773706      -103.25778      692.20398      120.68207      555.88915    
    355000   355            903.07834     -106.8525       3.6186932     -103.23381      903.07834     -6566.4445      554.15189    
    356000   356            830.49407     -106.52245      3.3278433     -103.1946       830.49407     -3760.5076      555.01362    
    357000   357            736.10508     -106.08476      2.9496205     -103.13513      736.10508     -3082.987       556.23486    
    358000   358            836.62057     -106.58185      3.3523926     -103.22946      836.62057     -2673.6528      552.88279    
    359000   359            562.4504      -105.4859       2.253775      -103.23213      562.4504       9774.1916      552.3243     
    360000   360            760.3347      -106.26808      3.0467102     -103.22137      760.3347      -5877.6126      558.18429    
    361000   361            620.48686     -105.72362      2.4863309     -103.23729      620.48686      3382.5382      554.6869     
    362000   362            815.6184      -106.4744       3.2682355     -103.20616      815.6184       32.185126      552.68287    
    363000   363            602.7646      -105.63242      2.4153166     -103.2171       602.7646       1844.5081      556.03966    
    364000   364            761.70916     -106.15583      3.0522177     -103.10361      761.70916     -2961.942       557.01113    
    365000   365            829.4171      -106.57814      3.3235278     -103.25461      829.4171      -8211.8595      557.87704    
    366000   366            530.16782     -105.42766      2.1244167     -103.30325      530.16782      6853.1753      553.45424    
    367000   367            694.88743     -106.09882      2.7844587     -103.31436      694.88743      1312.2454      553.86549    
    368000   368            787.18382     -106.36171      3.1542963     -103.20742      787.18382     -3303.3545      554.61926    
    369000   369            932.46867     -106.92856      3.7364621     -103.1921       932.46867     -4940.2463      553.20316    
    370000   370            658.18261     -105.89767      2.6373802     -103.26029      658.18261      563.18476      555.18487    
    371000   371            617.59022     -105.65656      2.4747239     -103.18184      617.59022      2762.2635      552.92428    
    372000   372            805.03882     -106.39842      3.2258425     -103.17258      805.03882     -4410.4925      554.56588    
    373000   373            605.09586     -105.68927      2.4246582     -103.26462      605.09586      3300.3219      552.91487    
    374000   374            785.75839     -106.32527      3.1485846     -103.17668      785.75839     -1819.659       553.81306    
    375000   375            816.72966     -106.44771      3.2726884     -103.17503      816.72966     -6006.3552      554.70038    
    376000   376            698.43303     -106.03031      2.7986662     -103.23164      698.43303      2100.1559      553.1141     
    377000   377            783.38482     -106.35405      3.1390735     -103.21497      783.38482     -2707.377       554.86486    
    378000   378            531.79789     -105.36964      2.1309485     -103.23869      531.79789      13014.55       548.90634    
    379000   379            572.06659     -105.53785      2.2923077     -103.24554      572.06659      6891.7738      552.03181    
    380000   380            725.05877     -106.10272      2.9053572     -103.19736      725.05877     -150.6525       555.13064    
    381000   381            856.08876     -106.6375       3.4304029     -103.20709      856.08876      513.33915      551.19701    
    382000   382            718.57913     -106.10471      2.8793929     -103.22531      718.57913     -426.64324      554.58163    
    383000   383            703.96511     -105.98124      2.8208336     -103.16041      703.96511     -306.71352      555.04853    
    384000   384            635.05975     -105.68773      2.5447254     -103.14301      635.05975      2719.784       556.20153    
    385000   385            778.80498     -106.27406      3.1207218     -103.15333      778.80498     -6207.3282      557.33373    
    386000   386            643.96178     -105.75734      2.5803964     -103.17694      643.96178      3553.7147      554.00851    
    387000   387            653.34368     -105.86371      2.6179903     -103.24572      653.34368      8740.0026      551.13693    
    388000   388            737.09613     -106.10833      2.9535917     -103.15474      737.09613     -65.208033      555.99708    
    389000   389            743.9726      -106.12455      2.9811462     -103.1434       743.9726      -4430.8808      557.57254    
    390000   390            608.61658     -105.582        2.4387659     -103.14324      608.61658      2354.8704      555.74843    
    391000   391            485.8379      -105.18914      1.9467838     -103.24236      485.8379       2608.9923      556.32197    
    392000   392            572.69727     -105.54349      2.2948349     -103.24865      572.69727      2484.8171      554.49834    
    393000   393            770.81893     -106.31194      3.0887212     -103.22322      770.81893      3022.2788      551.89985    
    394000   394            589.5587      -105.63752      2.3623997     -103.27512      589.5587       3063.1213      553.90544    
    395000   395            676.86894     -105.95009      2.7122575     -103.23783      676.86894      169.375        554.04583    
    396000   396            746.93887     -106.14145      2.9930322     -103.14841      746.93887      3526.7031      552.46502    
    397000   397            796.97612     -106.44707      3.1935347     -103.25353      796.97612     -3476.9772      554.34864    
    398000   398            761.42297     -106.27238      3.0510709     -103.22131      761.42297     -6195.2352      557.5747     
    399000   399            950.07903     -106.94395      3.8070279     -103.13692      950.07903     -10659.388      557.62267    
    400000   400            781.55466     -106.32993      3.1317399     -103.19819      781.55466     -5300.8187      556.46269    
    401000   401            662.7734      -105.97626      2.6557758     -103.32048      662.7734      -2606.8614      555.95931    
    402000   402            629.60555     -105.75181      2.52287       -103.22894      629.60555      362.90363      554.93811    
    403000   403            622.1829      -105.77029      2.493127      -103.27716      622.1829       6460.4819      551.70058    
    404000   404            638.09404     -105.823        2.556884      -103.26611      638.09404      1852.3312      553.94406    
    405000   405            601.56303     -105.63885      2.4105019     -103.22835      601.56303      3362.5345      555.00594    
    406000   406            710.41293     -106.0454       2.8466704     -103.19873      710.41293      2340.7965      553.31715    
    407000   407            705.29713     -106.02748      2.8261711     -103.20131      705.29713      827.40418      554.41846    
    408000   408            680.57059     -105.8696       2.7270902     -103.14251      680.57059     -1381.7777      557.65067    
    409000   409            664.14122     -105.8376       2.6612567     -103.17634      664.14122      2353.6029      555.12196    
    410000   410            635.45545     -105.76964      2.546311      -103.22333      635.45545      6.8548632      557.74922    
    411000   411            629.93813     -105.7501       2.5242027     -103.2259       629.93813      2036.1471      555.47534    
    412000   412            659.92588     -105.77363      2.6443656     -103.12927      659.92588      1342.102       556.59735    
    413000   413            783.52901     -106.28199      3.1396513     -103.14234      783.52901     -1664.4038      554.85185    
    414000   414            794.9793      -106.36826      3.1855333     -103.18273      794.9793       3238.8764      549.81875    
    415000   415            648.68849     -105.81821      2.5993366     -103.21887      648.68849     -1112.1606      556.91198    
    416000   416            787.49513     -106.36011      3.1555438     -103.20457      787.49513     -8347.7375      556.84303    
    417000   417            607.16487     -105.70632      2.4329488     -103.27337      607.16487      3754.7117      554.55184    
    418000   418            728.50721     -106.16653      2.9191754     -103.24735      728.50721     -4177.3801      555.43239    
    419000   419            738.76162     -106.22985      2.9602655     -103.26958      738.76162     -3708.787       555.70001    
    420000   420            695.17962     -106.09329      2.7856296     -103.30766      695.17962      5050.2621      552.47073    
    421000   421            615.7483      -105.75581      2.4673432     -103.28846      615.7483      -1629.5689      556.17825    
    422000   422            662.21144     -105.8571       2.6535239     -103.20357      662.21144     -58.392291      555.38163    
    423000   423            636.94358     -105.74377      2.552274      -103.1915       636.94358      512.17273      556.33117    
    424000   424            857.72434     -106.59097      3.4369568     -103.15402      857.72434     -8849.438       557.68488    
    425000   425            657.77651     -105.88987      2.6357529     -103.25412      657.77651      5403.4194      550.65734    
    426000   426            761.26135     -106.21965      3.0504233     -103.16923      761.26135      1952.5682      553.31379    
    427000   427            642.38968     -105.81415      2.5740969     -103.24005      642.38968     -3017.8718      557.58994    
    428000   428            784.20664     -106.33591      3.1423666     -103.19354      784.20664     -577.89984      553.00524    
    429000   429            631.4365      -105.77964      2.5302068     -103.24944      631.4365       2856.4356      555.41452    
    430000   430            552.61345     -105.42281      2.2143577     -103.20845      552.61345      6917.5644      553.54481    
    431000   431            797.87658     -106.37975      3.1971429     -103.18261      797.87658     -1242.5623      555.12437    
    432000   432            746.58182     -106.12792      2.9916015     -103.13632      746.58182     -1169.0317      554.12426    
    433000   433            546.26076     -105.40933      2.1889021     -103.22042      546.26076      7124.2944      552.64438    
    434000   434            576.81267     -105.59009      2.3113256     -103.27876      576.81267      8044.5652      552.38798    
    435000   435            660.64641     -105.83189      2.6472528     -103.18464      660.64641     -3283.8377      556.50592    
    436000   436            764.19119     -106.23921      3.0621634     -103.17705      764.19119     -2487.7663      555.32065    
    437000   437            814.86638     -106.39994      3.2652222     -103.13472      814.86638     -6443.8999      557.46391    
    438000   438            788.15685     -106.33256      3.1581953     -103.17437      788.15685      1673.7355      552.42387    
    439000   439            666.28765     -105.94466      2.6698576     -103.2748       666.28765     -666.60281      555.0668     
    440000   440            757.30557     -106.18274      3.0345722     -103.14817      757.30557      3365.0037      552.21531    
    441000   441            761.14611     -106.25603      3.0499615     -103.20607      761.14611     -4521.5486      557.17766    
    442000   442            740.64033     -106.23915      2.9677936     -103.27136      740.64033     -2037.5496      555.7623     
    443000   443            641.3922      -105.79188      2.5700999     -103.22178      641.3922       7418.9381      551.31627    
    444000   444            764.13616     -106.24732      3.0619429     -103.18538      764.13616     -5353.3484      555.12654    
    445000   445            641.59854     -105.79703      2.5709267     -103.2261       641.59854      1393.9853      554.44043    
    446000   446            874.16774     -106.73323      3.5028465     -103.23038      874.16774     -3059.4247      553.97663    
    447000   447            654.32535     -105.86983      2.6219239     -103.24791      654.32535      1735.209       554.47705    
    448000   448            643.31035     -105.88294      2.577786      -103.30515      643.31035      6704.9027      552.1355     
    449000   449            957.57624     -106.95928      3.8370697     -103.12221      957.57624     -7916.4244      555.77752    
    450000   450            734.61587     -106.21319      2.9436532     -103.26954      734.61587      646.96396      553.85453    
    451000   451            726.78693     -106.12058      2.9122821     -103.2083       726.78693     -1757.1426      556.19445    
    452000   452            601.14664     -105.69283      2.4088333     -103.28399      601.14664      3098.6191      554.12614    
    453000   453            785.96861     -106.38258      3.1494269     -103.23315      785.96861     -744.49679      553.46497    
    454000   454            749.40789     -106.15597      3.0029258     -103.15304      749.40789     -1696.1622      554.49447    
    455000   455            762.90041     -106.27286      3.0569911     -103.21587      762.90041     -147.40228      553.11702    
    456000   456            634.27413     -105.71218      2.5415773     -103.1706       634.27413     -1561.4545      556.96922    
    457000   457            614.93108     -105.72604      2.4640685     -103.26197      614.93108      1848.4909      555.74163    
    458000   458            701.80808     -106.00796      2.8121902     -103.19577      701.80808     -560.08436      555.20657    
    459000   459            662.30265     -105.88932      2.6538894     -103.23543      662.30265     -1050.3489      554.99139    
    460000   460            743.60806     -106.2167       2.9796854     -103.23701      743.60806     -3749.053       555.85709    
    461000   461            732.93696     -106.07511      2.9369257     -103.13818      732.93696     -544.21857      554.59201    
    462000   462            679.00127     -105.90725      2.7208019     -103.18644      679.00127      2649.9697      554.33895    
    463000   463            728.57549     -106.14695      2.919449      -103.2275       728.57549     -2385.3405      555.18808    
    464000   464            843.76302     -106.59551      3.3810128     -103.21449      843.76302     -3508.682       553.94011    
    465000   465            640.23057     -105.71109      2.5654452     -103.14564      640.23057      2048.7867      554.83935    
    466000   466            679.71349     -105.93212      2.7236558     -103.20846      679.71349     -3246.082       558.66952    
    467000   467            713.9873      -106.05847      2.8609932     -103.19748      713.9873      -2434.835       555.41078    
    468000   468            696.5126      -105.99206      2.7909709     -103.20109      696.5126       2442.6242      552.1445     
    469000   469            714.57774     -106.03949      2.8633591     -103.17613      714.57774     -2542.7949      555.79483    
    470000   470            644.0717      -105.74339      2.5808368     -103.16255      644.0717       900.6299       555.52434    
    471000   471            660.8599      -105.92015      2.6481083     -103.27204      660.8599       1687.774       555.2315     
    472000   472            620.21687     -105.71944      2.485249      -103.23419      620.21687     -3859.7679      559.21162    
    473000   473            660.86627     -105.9208       2.6481338     -103.27267      660.86627      3621.3486      552.61284    
    474000   474            803.99345     -106.41121      3.2216536     -103.18956      803.99345     -505.96467      552.69574    
    475000   475            613.09621     -105.75848      2.4567161     -103.30177      613.09621     -431.96219      556.00129    
    476000   476            695.30047     -105.98149      2.7861138     -103.19538      695.30047      4971.0049      553.55302    
    477000   477            684.76648     -105.94203      2.7439035     -103.19813      684.76648     -6411.5319      558.6967     
    478000   478            718.00291     -105.96899      2.877084      -103.09191      718.00291      2596.8463      553.48812    
    479000   479            758.24408     -106.21375      3.0383329     -103.17541      758.24408      5954.7748      550.57473    
    480000   480            732.84596     -106.12535      2.936561      -103.18879      732.84596     -2691.7627      555.4714     
    481000   481            698.00202     -106.03707      2.7969391     -103.24013      698.00202      106.5801       554.79181    
    482000   482            553.97438     -105.49253      2.2198111     -103.27272      553.97438      5585.5613      554.5418     
    483000   483            740.3769      -106.14217      2.966738      -103.17543      740.3769      -3853.0382      557.60567    
    484000   484            629.97809     -105.70669      2.5243628     -103.18233      629.97809      902.08815      553.67049    
    485000   485            686.64108     -105.92434      2.7514151     -103.17292      686.64108      3621.7326      553.56457    
    486000   486            668.24622     -105.89567      2.6777057     -103.21797      668.24622     -4139.7193      557.87542    
    487000   487            629.43556     -105.69861      2.5221889     -103.17642      629.43556      3741.6033      554.55267    
    488000   488            732.49903     -106.09173      2.9351708     -103.15656      732.49903      3467.2729      551.64898    
    489000   489            744.40677     -106.1593       2.9828859     -103.17641      744.40677      8.7083581      554.50173    
    490000   490            680.05132     -105.88469      2.7250095     -103.15968      680.05132     -144.45257      556.60953    
    491000   491            820.37228     -106.43669      3.2872846     -103.1494       820.37228     -5404.9524      555.28639    
    492000   492            796.9218      -106.36321      3.193317      -103.16989      796.9218      -1086.2602      554.57451    
    493000   493            615.44774     -105.70558      2.4661388     -103.23944      615.44774      7968.5692      550.57135    
    494000   494            829.76674     -106.54024      3.3249288     -103.21531      829.76674     -1527.2935      553.10807    
    495000   495            637.61933     -105.74771      2.5549818     -103.19273      637.61933      16.57612       554.82927    
    496000   496            693.7289      -105.94145      2.7798164     -103.16163      693.7289       3970.177       552.59445    
    497000   497            681.8993      -105.91404      2.7324145     -103.18163      681.8993      -2683.0192      556.68327    
    498000   498            604.6787      -105.57764      2.4229866     -103.15465      604.6787       663.88667      557.50271    
    499000   499            641.32806     -105.77145      2.5698429     -103.2016       641.32806      5448.665       553.62533    
    500000   500            743.68172     -106.21146      2.9799806     -103.23148      743.68172     -3345.0911      556.34996    
    501000   501            672.96571     -105.89887      2.696617      -103.20225      672.96571      2835.8317      552.63583    
    502000   502            645.93987     -105.76764      2.5883227     -103.17931      645.93987     -1786.3326      555.9451     
    503000   503            763.01031     -106.26858      3.0574315     -103.21115      763.01031     -851.67938      554.08791    
    504000   504            728.27174     -106.13817      2.9182318     -103.21993      728.27174     -411.656        554.40989    
    505000   505            679.5257      -105.8949       2.7229033     -103.172        679.5257       6246.3008      551.6558     
    506000   506            645.74503     -105.78144      2.587542      -103.19389      645.74503     -3759.1907      558.94577    
    507000   507            657.52981     -105.82953      2.6347643     -103.19476      657.52981     -2531.8967      556.57861    
    508000   508            801.92246     -106.36373      3.213355      -103.15038      801.92246     -2354.3506      555.13171    
    509000   509            727.65307     -106.03167      2.9157528     -103.11592      727.65307     -3088.5661      557.94823    
    510000   510            582.04429     -105.55022      2.332289      -103.21793      582.04429      8847.9267      552.26331    
    511000   511            708.38813     -106.09324      2.8385569     -103.25469      708.38813     -2771.0968      556.35199    
    512000   512            755.99171     -106.28118      3.0293076     -103.25188      755.99171      3619.4103      551.37735    
    513000   513            711.98641     -106.05428      2.8529755     -103.20131      711.98641      1275.8289      554.13286    
    514000   514            559.92884     -105.5028       2.243671      -103.25913      559.92884      1663.1752      555.76746    
    515000   515            729.45113     -106.11135      2.9229577     -103.1884       729.45113     -1951.7426      555.43747    
    516000   516            758.75899     -106.26922      3.0403962     -103.22883      758.75899     -3423.8444      555.00684    
    517000   517            672.78755     -105.92006      2.6959031     -103.22415      672.78755      3832.4677      552.37418    
    518000   518            676.85665     -105.97792      2.7122082     -103.26571      676.85665      2114.6056      553.44205    
    519000   519            740.97158     -106.08588      2.9691209     -103.11676      740.97158      572.13109      553.95283    
    520000   520            688.35791     -105.96297      2.7582945     -103.20467      688.35791      1201.2368      555.341      
    521000   521            705.99159     -105.96909      2.8289538     -103.14013      705.99159     -3784.9494      557.6329     
    522000   522            771.35853     -106.25357      3.0908834     -103.16269      771.35853     -9503.4279      559.29213    
    523000   523            627.603       -105.6616       2.5148457     -103.14675      627.603       -3183.5226      558.27276    
    524000   524            663.61394     -105.79619      2.6591438     -103.13705      663.61394      4484.3595      553.1645     
    525000   525            726.52235     -106.18137      2.9112219     -103.27015      726.52235      3815.0394      552.61298    
    526000   526            702.96876     -106.06193      2.8168411     -103.24509      702.96876     -3377.155       556.37181    
    527000   527            821.08807     -106.44148      3.2901529     -103.15132      821.08807     -3289.0077      555.79217    
    528000   528            568.17597     -105.49388      2.2767177     -103.21716      568.17597      7674.373       551.73327    
    529000   529            716.277       -106.12223      2.8701681     -103.25206      716.277        2959.2775      552.26127    
    530000   530            733.38254     -106.07673      2.9387111     -103.13802      733.38254     -8097.3753      560.57922    
    531000   531            763.24947     -106.22072      3.0583898     -103.16233      763.24947     -10188.384      560.93997    
    532000   532            595.08401     -105.54893      2.38454       -103.16439      595.08401      7534.9816      551.7934     
    533000   533            819.24957     -106.45072      3.2827859     -103.16793      819.24957     -6949.8522      557.42549    
    534000   534            722.68422     -106.12786      2.8958423     -103.23202      722.68422      527.08332      554.44289    
    535000   535            599.20754     -105.62128      2.4010633     -103.22022      599.20754     -774.06283      556.52067    
    536000   536            716.09861     -106.12608      2.8694533     -103.25663      716.09861     -2594.2868      556.86626    
    537000   537            661.12809     -105.82805      2.6491829     -103.17887      661.12809      2770.0036      553.01116    
    538000   538            706.37272     -106.10723      2.830481      -103.27675      706.37272     -399.65375      554.9005     
    539000   539            625.27509     -105.78793      2.5055176     -103.28241      625.27509     -424.17414      555.83108    
    540000   540            729.94958     -106.18021      2.924955      -103.25525      729.94958      1400.7495      552.16187    
    541000   541            727.7515      -106.08138      2.9161472     -103.16523      727.7515       2115.8553      554.35554    
    542000   542            757.24412     -106.19665      3.034326      -103.16233      757.24412     -5632.2972      559.44928    
    543000   543            808.01538     -106.40309      3.2377697     -103.16532      808.01538     -6235.3882      556.69778    
    544000   544            651.69058     -105.80501      2.6113662     -103.19364      651.69058     -1334.298       556.6192     
    545000   545            719.98648     -106.12918      2.8850323     -103.24415      719.98648     -386.99693      554.73027    
    546000   546            774.24947     -106.22129      3.1024676     -103.11882      774.24947     -1074.1453      555.73903    
    547000   547            774.75531     -106.25396      3.1044945     -103.14947      774.75531      3660.5258      552.05402    
    548000   548            597.50769     -105.68988      2.3942519     -103.29562      597.50769      6891.8709      552.29538    
    549000   549            696.31674     -106.02744      2.7901861     -103.23726      696.31674     -1859.5355      556.55594    
    550000   550            660.1198      -105.8941       2.6451426     -103.24896      660.1198       751.57561      556.09278    
    551000   551            645.97126     -105.86537      2.5884485     -103.27692      645.97126      3716.6609      553.4277     
    552000   552            708.90713     -106.02306      2.8406366     -103.18243      708.90713     -785.70728      555.95033    
    553000   553            660.88982     -105.88293      2.6482281     -103.2347       660.88982      170.85967      555.24463    
    554000   554            569.5508      -105.47658      2.2822268     -103.19435      569.5508      -515.25292      557.17501    
    555000   555            722.71567     -106.07254      2.8959683     -103.17657      722.71567     -504.29437      555.9633     
    556000   556            681.1434      -105.85863      2.7293855     -103.12925      681.1434      -6616.6456      557.97389    
    557000   557            801.51904     -106.37176      3.2117385     -103.16002      801.51904     -264.26967      553.52727    
    558000   558            640.21773     -105.74063      2.5653937     -103.17524      640.21773      2967.0567      555.08984    
    559000   559            632.84065     -105.69639      2.5358333     -103.16055      632.84065     -3244.5946      558.01034    
    560000   560            776.80453     -106.30789      3.1127059     -103.19519      776.80453      339.77309      553.72662    
    561000   561            755.34212     -106.26867      3.0267046     -103.24197      755.34212      3750.7547      550.98532    
    562000   562            733.76898     -106.20949      2.9402596     -103.26923      733.76898     -221.71651      554.16842    
    563000   563            612.85158     -105.68595      2.4557358     -103.23021      612.85158      1385.6769      556.07904    
    564000   564            739.32785     -106.1339       2.9625344     -103.17136      739.32785     -2918.9324      556.08822    
    565000   565            798.74374     -106.43526      3.2006177     -103.23464      798.74374     -219.89574      553.43018    
    566000   566            580.88345     -105.51921      2.3276374     -103.19157      580.88345      1371.2842      555.08323    
    567000   567            759.24024     -106.14754      3.0423246     -103.10521      759.24024     -2122.9919      555.70873    
    568000   568            715.60544     -106.14184      2.8674771     -103.27437      715.60544     -706.20118      553.75236    
    569000   569            622.98328     -105.73683      2.4963342     -103.24049      622.98328     -34.557832      555.18319    
    570000   570            731.91761     -106.10364      2.9328411     -103.1708       731.91761      892.01358      552.73437    
    571000   571            618.78722     -105.68725      2.4795203     -103.20773      618.78722      3790.9409      554.11067    
    572000   572            601.54257     -105.64447      2.4104199     -103.23405      601.54257     -1069.8226      557.99362    
    573000   573            796.08774     -106.3617       3.1899749     -103.17172      796.08774     -3496.3881      554.80028    
    574000   574            775.97208     -106.30526      3.1093702     -103.19589      775.97208     -2351.9207      555.53892    
    575000   575            758.51348     -106.21909      3.0394125     -103.17968      758.51348     -2115.9613      554.63428    
    576000   576            693.90603     -106.02813      2.7805262     -103.2476       693.90603      285.81788      554.60868    
    577000   577            708.24853     -106.03856      2.8379975     -103.20057      708.24853      547.47208      555.84197    
    578000   578            588.71044     -105.58113      2.3590007     -103.22213      588.71044      2905.5652      553.62375    
    579000   579            790.52907     -106.30622      3.167701      -103.13852      790.52907     -650.91052      553.76829    
    580000   580            772.43553     -106.31912      3.095199      -103.22392      772.43553     -7203.1598      556.32472    
    581000   581            653.85883     -105.84689      2.6200545     -103.22683      653.85883      6700.6013      552.09955    
    582000   582            772.03549     -106.30748      3.093596      -103.21388      772.03549      537.14924      553.53943    
    583000   583            747.69704     -106.21325      2.9960703     -103.21718      747.69704     -6752.881       558.03054    
    584000   584            719.89864     -106.11619      2.8846803     -103.23151      719.89864     -2755.3135      556.79007    
    585000   585            780.14566     -106.3194       3.126094      -103.1933       780.14566     -5707.5672      555.7011     
    586000   586            684.60341     -105.95502      2.74325       -103.21177      684.60341     -678.32826      555.69318    
    587000   587            745.44352     -106.11146      2.9870403     -103.12442      745.44352     -443.89517      555.71081    
    588000   588            714.5226      -106.12708      2.8631381     -103.26395      714.5226       3644.7515      551.99619    
    589000   589            683.77675     -105.93248      2.7399375     -103.19254      683.77675      1797.4847      553.12202    
    590000   590            779.25037     -106.35025      3.1225065     -103.22774      779.25037      237.98414      554.36442    
    591000   591            508.57986     -105.30118      2.0379123     -103.26326      508.57986      3593.5536      558.21639    
    592000   592            588.50654     -105.59359      2.3581836     -103.23541      588.50654     -2671.0267      558.88195    
    593000   593            822.33538     -106.51716      3.2951509     -103.22201      822.33538     -5784.0249      555.33447    
    594000   594            719.62484     -106.12752      2.8835832     -103.24393      719.62484      784.40338      552.28605    
    595000   595            746.93874     -106.21248      2.9930317     -103.21945      746.93874      3007.2891      554.77103    
[...]
    858000   858            705.67487     -106.02808      2.8276847     -103.20039      705.67487     -2446.4372      555.73559    
    859000   859            710.59575     -106.0252       2.847403      -103.17779      710.59575     -5728.379       557.53967    
    860000   860            738.76616     -106.13739      2.9602837     -103.1771       738.76616     -3868.7062      557.15177    
    861000   861            729.36765     -106.08181      2.9226232     -103.15919      729.36765      778.67583      554.21477    
    862000   862            730.41815     -106.18663      2.9268326     -103.2598       730.41815      2094.7001      552.56024    
    863000   863            641.20443     -105.85806      2.5693475     -103.28871      641.20443      4880.0413      551.92233    
    864000   864            786.05205     -106.28874      3.1497613     -103.13898      786.05205     -1956.816       555.80906    
    865000   865            708.10347     -106.06615      2.8374163     -103.22873      708.10347      1000.3815      553.20502    
    866000   866            731.38118     -106.1364       2.9306916     -103.20571      731.38118     -765.45018      554.27792    
    867000   867            603.05747     -105.62926      2.4164902     -103.21277      603.05747      2409.28        554.32598    
    868000   868            680.44755     -105.90296      2.7265972     -103.17636      680.44755     -902.09883      555.27256    
    869000   869            796.56242     -106.3802       3.191877      -103.18832      796.56242     -3050.1658      554.06542    
    870000   870            749.88681     -106.25799      3.0048448     -103.25314      749.88681      2383.621       552.53756    
    871000   871            671.12758     -105.96498      2.6892515     -103.27573      671.12758      5141.7496      551.39179    
    872000   872            736.66823     -106.14194      2.9518771     -103.19007      736.66823     -1322.1945      553.60163    
    873000   873            606.70636     -105.65122      2.4311115     -103.22011      606.70636      2598.4748      554.22084    
    874000   874            659.64942     -105.88035      2.6432578     -103.23709      659.64942     -3506.4624      556.58963    
    875000   875            720.93236     -106.11418      2.8888225     -103.22536      720.93236      1098.7925      554.16208    
    876000   876            727.45965     -106.12664      2.9149777     -103.21166      727.45965      1712.3333      554.31363    
    877000   877            724.40307     -106.08625      2.9027298     -103.18352      724.40307      767.4841       553.87408    
    878000   878            723.49223     -106.02583      2.89908       -103.12675      723.49223      826.76076      555.24366    
    879000   879            825.55731     -106.52512      3.3080614     -103.21706      825.55731     -5545.6793      555.28031    
    880000   880            711.58767     -105.976        2.8513777     -103.12462      711.58767      147.92815      553.71689    
    881000   881            527.05112     -105.35568      2.1119278     -103.24376      527.05112      2186.4118      555.43477    
    882000   882            709.92739     -106.02965      2.8447249     -103.18492      709.92739      2578.4167      554.82271    
    883000   883            822.04981     -106.50585      3.2940066     -103.21185      822.04981     -4215.9296      555.54112    
    884000   884            675.4739      -105.96016      2.7066675     -103.25349      675.4739      -47.809619      556.21107    
    885000   885            724.03622     -106.07896      2.9012598     -103.1777       724.03622      552.37342      554.37686    
    886000   886            690.13352     -105.93804      2.7654095     -103.17263      690.13352     -652.87794      554.73649    
    887000   887            644.39338     -105.85644      2.5821258     -103.27431      644.39338      290.79751      554.76947    
    888000   888            766.8885      -106.17849      3.0729717     -103.10552      766.8885      -5794.5914      557.59309    
    889000   889            509.38792     -105.18979      2.0411503     -103.14864      509.38792      4080.466       555.84626    
    890000   890            716.46261     -106.11728      2.8709119     -103.24637      716.46261      3339.011       551.36183    
    891000   891            598.49777     -105.59383      2.3982192     -103.19561      598.49777      1951.3258      554.00228    
    892000   892            669.8721      -105.92244      2.6842207     -103.23822      669.8721       3164.8304      553.15605    
    893000   893            600.16936     -105.66432      2.4049173     -103.25941      600.16936      3712.9267      553.41173    
    894000   894            584.44563     -105.58134      2.3419113     -103.23943      584.44563     -983.17349      556.83231    
    895000   895            518.15555     -105.28888      2.0762827     -103.21259      518.15555      6767.7073      554.02194    
    896000   896            637.12679     -105.75026      2.5530081     -103.19726      637.12679      1034.3607      554.71512    
    897000   897            750.05155     -106.21711      3.0055049     -103.2116       750.05155      2600.9396      551.5922     
    898000   898            724.73395     -106.20208      2.9040557     -103.29802      724.73395     -775.16283      554.80209    
    899000   899            598.40475     -105.67326      2.3978464     -103.27542      598.40475     -2194.267       556.68448    
    900000   900            812.16572     -106.42594      3.2544004     -103.17154      812.16572     -7357.8007      558.22599    
    901000   901            704.02659     -105.9717       2.8210799     -103.15062      704.02659     -2849.5768      556.74779    
    902000   902            842.52133     -106.50875      3.3760373     -103.13271      842.52133     -3609.4415      553.83564    
    903000   903            673.52208     -105.86318      2.6988464     -103.16434      673.52208      1683.1816      553.79546    
    904000   904            729.49705     -106.13101      2.9231417     -103.20787      729.49705      64.849593      553.80858    
    905000   905            672.80565     -105.96782      2.6959756     -103.27184      672.80565      1403.5549      554.67874    
    906000   906            603.72664     -105.67344      2.4191716     -103.25426      603.72664     -1272.0725      556.54028    
    907000   907            643.71325     -105.84691      2.5794005     -103.26751      643.71325      7673.5762      550.23573    
    908000   908            678.75135     -105.91693      2.7198004     -103.19712      678.75135     -1811.385       555.7974     
    909000   909            736.57476     -106.17134      2.9515026     -103.21984      736.57476     -1226.1951      555.65342    
    910000   910            819.23845     -106.42463      3.2827413     -103.14189      819.23845     -4687.7817      555.0754     
    911000   911            742.37492     -106.15816      2.9747442     -103.18342      742.37492     -1656.3587      555.46618    
    912000   912            721.16339     -106.1428       2.8897482     -103.25305      721.16339     -2012.7111      556.71317    
    913000   913            747.24851     -106.28899      2.994273      -103.29471      747.24851     -421.2618       555.10237    
    914000   914            835.29347     -106.56563      3.3470748     -103.21856      835.29347      517.95527      552.37222    
    915000   915            657.84215     -105.78837      2.6360159     -103.15235      657.84215      953.25639      555.24813    
    916000   916            638.35495     -105.78642      2.5579294     -103.22849      638.35495      2415.213       554.59916    
    917000   917            826.3311      -106.47933      3.311162      -103.16817      826.3311      -4215.5223      554.03755    
    918000   918            775.6113      -106.24083      3.1079245     -103.13291      775.6113      -4799.645       558.18209    
    919000   919            922.78655     -106.80807      3.6976652     -103.1104       922.78655     -9260.7007      556.57739    
    920000   920            680.1553      -105.88421      2.7254262     -103.15879      680.1553       4528.453       552.63689    
    921000   921            933.216       -106.88135      3.7394567     -103.14189      933.216       -7700.7936      554.67603    
    922000   922            698.69099     -106.01195      2.7996999     -103.21225      698.69099     -2602.1206      557.49791    
    923000   923            747.64819     -106.23624      2.9958745     -103.24036      747.64819      962.01587      553.69833    
    924000   924            771.38465     -106.35335      3.090988      -103.26237      771.38465     -4476.3769      555.34308    
    925000   925            647.6433      -105.84014      2.5951485     -103.245        647.6433       729.42609      554.65529    
    926000   926            588.86088     -105.61641      2.3596035     -103.25681      588.86088      670.88434      554.95809    
    927000   927            682.75176     -105.93529      2.7358303     -103.19946      682.75176      2606.8032      554.05351    
    928000   928            717.44399     -106.10895      2.8748444     -103.23411      717.44399     -3348.2535      556.09886    
    929000   929            790.73692     -106.33037      3.1685338     -103.16184      790.73692     -2649.4348      554.66094    
    930000   930            593.47586     -105.59359      2.3780961     -103.21549      593.47586      5882.0563      552.54353    
    931000   931            804.12698     -106.34805      3.2221887     -103.12586      804.12698     -10759.295      560.11688    
    932000   932            845.35351     -106.54568      3.387386      -103.1583       845.35351     -7193.5576      557.19896    
    933000   933            781.07297     -106.25752      3.1298098     -103.12771      781.07297     -430.52289      554.67288    
    934000   934            807.20873     -106.41901      3.2345374     -103.18447      807.20873     -128.06641      552.98561    
    935000   935            620.92187     -105.70185      2.488074      -103.21378      620.92187      5401.7606      551.58441    
    936000   936            579.17274     -105.49438      2.3207825     -103.1736       579.17274      5597.8283      552.78516    
    937000   937            713.15886     -106.07112      2.8576736     -103.21345      713.15886     -1699.026       555.24721    
    938000   938            782.38797     -106.32874      3.1350791     -103.19366      782.38797     -12317.147      561.72858    
    939000   939            796.97095     -106.39444      3.193514      -103.20093      796.97095     -9523.7689      558.99829    
    940000   940            702.59534     -105.98989      2.8153448     -103.17455      702.59534      5048.7206      551.60901    
    941000   941            659.45463     -105.86496      2.6424772     -103.22248      659.45463      8440.3669      549.58951    
    942000   942            671.3181      -105.94189      2.6900149     -103.25188      671.3181       1711.5129      553.50818    
    943000   943            667.29881     -105.89749      2.6739094     -103.22358      667.29881      1016.7088      553.7291     
    944000   944            563.35157     -105.52198      2.2573861     -103.26459      563.35157      8635.3716      552.22268    
    945000   945            794.67166     -106.35848      3.1843006     -103.17418      794.67166     -322.59182      553.31477    
    946000   946            644.64692     -105.80508      2.5831418     -103.22193      644.64692     -47.563623      556.16009    
    947000   947            767.74289     -106.25982      3.0763953     -103.18343      767.74289      1613.9719      552.38775    
    948000   948            711.00202     -106.09345      2.849031      -103.24442      711.00202      2951.1346      553.25045    
    949000   949            664.79141     -105.85804      2.663862      -103.19418      664.79141     -2352.2111      556.00882    
    950000   950            716.30676     -106.16797      2.8702874     -103.29769      716.30676      3973.7475      552.21573    
    951000   951            567.01666     -105.52891      2.2720723     -103.25684      567.01666      6987.9366      550.89565    
    952000   952            655.5888      -105.82409      2.6269866     -103.19711      655.5888       2023.5249      553.87038    
    953000   953            748.20381     -106.19835      2.9981009     -103.20025      748.20381     -3.2464391      554.1757     
    954000   954            572.88203     -105.49644      2.2955752     -103.20087      572.88203      2841.3591      556.36322    
    955000   955            748.74396     -106.18785      3.0002653     -103.18758      748.74396     -5300.2533      557.96419    
    956000   956            689.61649     -106.03223      2.7633377     -103.26889      689.61649      2087.2604      552.51485    
    957000   957            585.46757     -105.56066      2.3460063     -103.21465      585.46757      9852.7638      551.77654    
    958000   958            662.63741     -105.96837      2.6552309     -103.31314      662.63741     -2001.5741      555.54495    
    959000   959            773.82644     -106.37899      3.1007725     -103.27821      773.82644     -2430.435       553.87136    
    960000   960            768.81279     -106.27064      3.0806824     -103.18996      768.81279      10188.163      548.63129    
    961000   961            600.61786     -105.64663      2.4067145     -103.23991      600.61786     -328.52245      555.96308    
    962000   962            775.57646     -106.31775      3.1077849     -103.20996      775.57646     -4729.5015      555.32277    
    963000   963            612.04795     -105.64157      2.4525156     -103.18906      612.04795     -1480.1873      558.75935    
    964000   964            719.61344     -106.14618      2.8835375     -103.26264      719.61344     -4970.5961      557.20783    
    965000   965            770.55758     -106.20809      3.0876739     -103.12041      770.55758     -1201.7913      556.66547    
    966000   966            806.91979     -106.38277      3.2333796     -103.14939      806.91979     -2837.8777      555.68018    
    967000   967            725.36157     -106.12715      2.9065706     -103.22058      725.36157     -226.66303      554.64979    
    968000   968            734.77255     -106.20875      2.944281      -103.26447      734.77255      5039.7227      550.98094    
    969000   969            686.48834     -106.00842      2.750803      -103.25761      686.48834      4552.9851      552.67665    
    970000   970            646.17158     -105.85567      2.5892512     -103.26642      646.17158     -1770.4934      556.02006    
    971000   971            632.10292     -105.77389      2.5328772     -103.24102      632.10292      2580.8796      554.08223    
    972000   972            658.79596     -105.88094      2.6398379     -103.2411       658.79596     -1165.3187      555.05689    
    973000   973            668.87518     -105.96399      2.680226      -103.28376      668.87518      2409.7485      553.8268     
    974000   974            770.92274     -106.35443      3.0891372     -103.2653       770.92274     -5144.6869      557.11578    
    975000   975            682.86158     -105.98394      2.7362704     -103.24767      682.86158      3802.7658      553.84058    
    976000   976            859.91325     -106.61268      3.4457279     -103.16695      859.91325     -3861.2164      554.07354    
    977000   977            884.44013     -106.71685      3.5440086     -103.17285      884.44013     -9589.4927      556.76846    
    978000   978            793.50284     -106.41748      3.1796171     -103.23786      793.50284     -255.64379      553.60258    
    979000   979            498.86424     -105.29279      1.9989812     -103.29381      498.86424      8170.8022      551.88561    
    980000   980            646.44379     -105.77778      2.5903419     -103.18744      646.44379      1504.3344      554.43691    
    981000   981            718.17078     -106.07971      2.8777566     -103.20196      718.17078      1593.5158      552.86584    
    982000   982            646.26998     -105.76262      2.5896455     -103.17297      646.26998      950.03937      555.68327    
    983000   983            621.21994     -105.7561       2.4892684     -103.26683      621.21994     -41.44761       555.62168    
    984000   984            609.56466     -105.63014      2.4425649     -103.18757      609.56466      4801.4831      552.96711    
    985000   985            622.96413     -105.65261      2.4962575     -103.15635      622.96413      6796.2274      553.71111    
    986000   986            713.62458     -106.10182      2.8595397     -103.24228      713.62458      459.10219      553.73356    
    987000   987            646.52426     -105.86987      2.5906644     -103.27921      646.52426     -3299.8871      557.66571    
    988000   988            827.03247     -106.49382      3.3139725     -103.17985      827.03247     -6724.228       557.09394    
    989000   989            710.93042     -106.02757      2.8487441     -103.17882      710.93042     -1936.8076      555.23444    
    990000   990            685.46        -105.92159      2.7466824     -103.1749       685.46         4849.0066      552.97562    
    991000   991            698.07453     -105.93668      2.7972296     -103.13945      698.07453      5264.8535      552.20884    
    992000   992            810.29065     -106.46465      3.2468869     -103.21776      810.29065     -11102.52       558.88464    
    993000   993            637.88485     -105.83622      2.5560457     -103.28017      637.88485      4051.2757      552.42393    
    994000   994            704.38193     -106.06288      2.8225038     -103.24038      704.38193      3541.6146      551.78958    
    995000   995            663.61266     -105.86946      2.6591387     -103.21033      663.61266     -3434.4626      556.54019    
    996000   996            673.72922     -105.93495      2.6996764     -103.23527      673.72922     -253.95701      555.35905    
    997000   997            497.02216     -105.23488      1.9915999     -103.24328      497.02216      3767.8735      554.88911    
    998000   998            669.77589     -105.93423      2.6838352     -103.2504       669.77589      480.55849      554.47669    
    999000   999            681.02686     -106.0146       2.7289186     -103.28568      681.02686      1582.8754      552.91428    
   1000000   1000           704.89178     -106.06055      2.8245468     -103.236        704.89178     -1989.6601      554.79242    
Loop time of 82.694 on 2 procs for 1000000 steps with 32 atoms

Performance: 1044.816 ns/day, 0.023 hours/ns, 12092.781 timesteps/s
95.7% CPU use with 2 MPI tasks x 1 OpenMP threads

MPI task timing breakdown:
Section |  min time  |  avg time  |  max time  |%varavg| %total
---------------------------------------------------------------
Pair    | 44.49      | 47.487     | 50.484     |  43.5 | 57.42
Neigh   | 0          | 0          | 0          |   0.0 |  0.00
Comm    | 8.5636     | 11.458     | 14.351     |  85.5 | 13.86
Output  | 0.01938    | 0.019565   | 0.019749   |   0.1 |  0.02
Modify  | 22.677     | 22.864     | 23.051     |   3.9 | 27.65
Other   |            | 0.8662     |            |       |  1.05

Nlocal:             16 ave          16 max          16 min
Histogram: 2 0 0 0 0 0 0 0 0 0
Nghost:            914 ave         914 max         914 min
Histogram: 2 0 0 0 0 0 0 0 0 0
Neighs:           1120 ave        1314 max         926 min
Histogram: 1 0 0 0 0 0 0 0 0 1

Total # of neighbors = 2240
Ave neighs/atom = 70
Neighbor list builds = 0
Dangerous builds = 0
Total wall time: 0:01:22
