LAMMPS (23 Jun 2022 - Update 4)
OMP_NUM_THREADS environment is not set. Defaulting to 1 thread. (src/src/comm.cpp:98)
  using 1 OpenMP thread(s) per MPI task
# MSE 401 Lab 2
# Heat and cooling of Aluminum using Molecular Dynamics

# Section 1: Setting up initial parameters

# Define unit set and class of atomic model
units metal
atom_style atomic

# Parameters for Problems 2.1:
# -----------------------------------------------------------------------------
variable TempInitial equal 900
variable TempFinal equal 1400
variable TempStep equal 25
variable StepSize equal 0.001
# -----------------------------------------------------------------------------

# Periodic boundary conditions along all three dimensions
boundary p p p

# Create an FCC lattice with the lattice spacing supplied supplied by the user
# using a single conventional (orthogonal) unit cell

lattice fcc 4.04525
Lattice spacing in x,y,z = 4.04525 4.04525 4.04525
region  box block 0 2 0 2 0 2 units lattice
create_box  1 box
Created orthogonal box = (0 0 0) to (8.0905 8.0905 8.0905)
  1 by 1 by 2 MPI processor grid
create_atoms 1 box
Created 32 atoms
  using lattice units in orthogonal box = (0 0 0) to (8.0905 8.0905 8.0905)
  create_atoms CPU = 0.000 seconds

# Specify which force fields or potentials to use
pair_style eam/alloy
pair_coeff * * ./Al_mm.eam.fs  Al
Reading eam/alloy potential file ./Al_mm.eam.fs with DATE: 2007-06-11
#pair_style	lj/cut 2.5
#pair_coeff	1 1 1.0 1.0 2.5

# Create files outside of any loops
variable prallfile string prall.txt
# Print headers
print "Temp                     Press                     Vol                     Etotal" file ${prallfile}
print "Temp                     Press                     Vol                     Etotal" file prall.txt
Temp                     Press                     Vol                     Etotal

# Set what thermodynamic information to print to log
compute mytemp all temp
compute mypress all pressure thermo_temp
# compute statements to normalize the pe and ke
compute NormPE all pe/atom
compute NormKE all ke/atom
# calculate average value over atoms
compute avgPE all reduce ave c_NormPE
compute avgKE all reduce ave c_NormKE
# create variables for average Etotal, Temp, and Pressure, and vol
variable avgEtotal   equal c_avgPE+c_avgKE
variable vmytemp   equal c_mytemp
variable vmypress   equal c_mypress
variable vmyvol  equal vol

# set thermo style which determines what thermo data will be displayed on each timestep of our runs
thermo_style custom step time temp pe ke etotal c_mytemp c_mypress vol
timestep 0.001

# Section 2: Starting MD runs

# NVE stabilization run
variable tempinit equal 600 # Use 2*${tempvar} for fixed E ensemble.
velocity all create ${tempinit} 825577 dist gaussian
velocity all create 600 825577 dist gaussian
fix 1 all nve # nve ensemble molecular dynamics.
fix 2 all ave/time 1 10 10 c_mytemp c_mypress v_vmyvol v_avgEtotal file nveeqfile.txt
thermo 1000 # Print every "thermo" timesteps
run 5000
Neighbor list info ...
  update every 1 steps, delay 10 steps, check yes
  max neighbors/atom: 2000, page size: 100000
  master list distance cutoff = 8.5
  ghost atom cutoff = 8.5
  binsize = 4.25, bins = 2 2 2
  1 neighbor lists, perpetual/occasional/extra = 1 0 0
  (1) pair eam/alloy, perpetual
      attributes: half, newton on
      pair build: half/bin/atomonly/newton
      stencil: half/bin/3d
      bin: standard
Per MPI rank memory allocation (min/avg/max) = 3.346 | 3.346 | 3.346 Mbytes
   Step          Time           Temp          PotEng         KinEng         TotEng        c_mytemp      c_mypress        Volume    
         0   0              600           -109.14102      2.4042387     -106.73678      600            4854.6303      529.57331    
      1000   1              297.43987     -107.9281       1.1918607     -106.73624      297.43987      16140.891      529.57331    
      2000   2              328.31007     -108.05193      1.3155596     -106.73637      328.31007      15910.49       529.57331    
      3000   3              323.22736     -108.03156      1.2951929     -106.73636      323.22736      15720.917      529.57331    
      4000   4              271.89734     -107.82573      1.0895102     -106.73622      271.89734      16892.09       529.57331    
      5000   5              350.10661     -108.13931      1.4028998     -106.73641      350.10661      15163.968      529.57331    
Loop time of 0.336439 on 2 procs for 5000 steps with 32 atoms

Performance: 1284.037 ns/day, 0.019 hours/ns, 14861.539 timesteps/s
99.2% CPU use with 2 MPI tasks x 1 OpenMP threads

MPI task timing breakdown:
Section |  min time  |  avg time  |  max time  |%varavg| %total
---------------------------------------------------------------
Pair    | 0.22324    | 0.23802    | 0.2528     |   3.0 | 70.75
Neigh   | 0          | 0          | 0          |   0.0 |  0.00
Comm    | 0.042576   | 0.057314   | 0.072051   |   6.2 | 17.04
Output  | 3.3804e-05 | 5.1848e-05 | 6.9892e-05 |   0.0 |  0.02
Modify  | 0.033657   | 0.035501   | 0.037345   |   1.0 | 10.55
Other   |            | 0.005555   |            |       |  1.65

Nlocal:             16 ave          16 max          16 min
Histogram: 2 0 0 0 0 0 0 0 0 0
Nghost:            914 ave         914 max         914 min
Histogram: 2 0 0 0 0 0 0 0 0 0
Neighs:           1120 ave        1314 max         926 min
Histogram: 1 0 0 0 0 0 0 0 0 1

Total # of neighbors = 2240
Ave neighs/atom = 70
Neighbor list builds = 0
Dangerous builds = 0
unfix 2
unfix 1

# NPT stabilization run
fix 1 all npt temp 700 700 0.1 iso 1 1 1 drag 1 # npt ensemble molecular dynamics.
fix 2 all ave/time 1 10 10 c_mytemp c_mypress v_vmyvol v_avgEtotal file npteqfile.txt
thermo 1000
run 5000
Per MPI rank memory allocation (min/avg/max) = 3.605 | 3.605 | 3.605 Mbytes
   Step          Time           Temp          PotEng         KinEng         TotEng        c_mytemp      c_mypress        Volume    
      5000   5              350.10661     -108.13931      1.4028998     -106.73641      350.10661      15163.968      529.57331    
      6000   6              720.91002     -106.12367      2.888733      -103.23494      720.91002      843.99703      552.92266    
      7000   7              776.70631     -106.36093      3.1123123     -103.24862      776.70631     -2272.8828      554.24871    
      8000   8              696.91254     -106.07835      2.7925735     -103.28578      696.91254      2991.1573      552.92525    
      9000   9              677.40267     -105.94519      2.7143962     -103.2308       677.40267     -4280.6691      556.77961    
     10000   10             611.96326     -105.67598      2.4521763     -103.22381      611.96326      1853.8143      556.01177    
Loop time of 0.356253 on 2 procs for 5000 steps with 32 atoms

Performance: 1212.622 ns/day, 0.020 hours/ns, 14034.972 timesteps/s
98.1% CPU use with 2 MPI tasks x 1 OpenMP threads

MPI task timing breakdown:
Section |  min time  |  avg time  |  max time  |%varavg| %total
---------------------------------------------------------------
Pair    | 0.23909    | 0.24142    | 0.24374    |   0.5 | 67.77
Neigh   | 0          | 0          | 0          |   0.0 |  0.00
Comm    | 0.046237   | 0.048797   | 0.051357   |   1.2 | 13.70
Output  | 6.7427e-05 | 0.00031466 | 0.0005619  |   0.0 |  0.09
Modify  | 0.061197   | 0.061602   | 0.062008   |   0.2 | 17.29
Other   |            | 0.004124   |            |       |  1.16

Nlocal:             16 ave          17 max          15 min
Histogram: 1 0 0 0 0 0 0 0 0 1
Nghost:            914 ave         915 max         913 min
Histogram: 1 0 0 0 0 0 0 0 0 1
Neighs:         1184.5 ave        1272 max        1097 min
Histogram: 1 0 0 0 0 0 0 0 0 1

Total # of neighbors = 2369
Ave neighs/atom = 74.03125
Neighbor list builds = 0
Dangerous builds = 0
unfix 2
unfix 1

# --------------------------------------------------------------------------------------------
# Generate loops to ramp temperature up
variable LoopSize equal 21
label LoopStart
variable i loop ${LoopSize}
variable i loop 21
print " "
 
print "*******LOOP # $i*********"
*******LOOP # 1*********
print " "
 
variable tempvar equal ${TempStep}*${i}+${TempInitial}-${TempStep}
variable tempvar equal 25*${i}+${TempInitial}-${TempStep}
variable tempvar equal 25*1+${TempInitial}-${TempStep}
variable tempvar equal 25*1+900-${TempStep}
variable tempvar equal 25*1+900-25
variable rampup_eqavgfile string rampup_eqavg_${tempvar}.txt
variable rampup_eqavgfile string rampup_eqavg_900.txt
variable rampup_pravgfile string rampup_pravg_${tempvar}.txt
variable rampup_pravgfile string rampup_pravg_900.txt
# variable rampup_eqfile string rampup_eq_${tempvar}.txt

# NPT Equilibration run at temperature
reset_timestep 0
variable eqrunl equal 1E4 # Keep > 10000 to avoid crashing fix lines below for time avg output
fix 1 all npt temp ${tempvar} ${tempvar} 0.1 iso 1 1 1 drag 1 # npt ensemble molecular dynamics.
fix 1 all npt temp 900 ${tempvar} 0.1 iso 1 1 1 drag 1 
fix 1 all npt temp 900 900 0.1 iso 1 1 1 drag 1 

fix 2 all ave/time 1 10 10 c_mytemp c_mypress v_vmyvol v_avgEtotal file ${rampup_eqavgfile}
fix 2 all ave/time 1 10 10 c_mytemp c_mypress v_vmyvol v_avgEtotal file rampup_eqavg_900.txt
# print to file average of every 10 steps. Every 10 femptoseconds


# fix 3 all ave/time 1 10000 10000 c_mytemp c_mypress v_vmyvol v_avgEtotal file ${rampup_eqfile}
thermo 1000 # Print every "thermo" timesteps
run ${eqrunl}
run 10000
Per MPI rank memory allocation (min/avg/max) = 3.605 | 3.605 | 3.605 Mbytes
   Step          Time           Temp          PotEng         KinEng         TotEng        c_mytemp      c_mypress        Volume    
         0   0              611.96326     -105.67598      2.4521763     -103.22381      611.96326      1853.8143      556.01177    
      1000   1              844.96254     -104.52129      3.3858194     -101.13547      844.96254      123.65988      566.45565    
      2000   2              732.24526     -104.34488      2.934154      -101.41073      732.24526      19771.044      555.01232    
      3000   3              972.76909     -104.96347      3.8979485     -101.06552      972.76909      1294.9066      562.85345    
      4000   4              815.03638     -104.56021      3.2659033     -101.29431      815.03638      1856.9766      564.10067    
      5000   5              875.40938     -104.8386       3.5078219     -101.33077      875.40938     -1330.9189      563.97557    
      6000   6              819.00023     -104.50253      3.2817868     -101.22075      819.00023      3774.3381      564.22033    
      7000   7              1024.7985     -105.38167      4.1064338     -101.27524      1024.7985     -3618.0953      563.3163     
      8000   8              884.37        -104.72046      3.5437276     -101.17673      884.37        -1470.2621      565.87842    
      9000   9              959.91643     -105.21407      3.846447      -101.36762      959.91643     -4906.0146      566.36827    
     10000   10             869.75562     -104.65526      3.4851669     -101.17009      869.75562      4653.749       563.96684    
Loop time of 0.741536 on 2 procs for 10000 steps with 32 atoms

Performance: 1165.148 ns/day, 0.021 hours/ns, 13485.514 timesteps/s
97.1% CPU use with 2 MPI tasks x 1 OpenMP threads

MPI task timing breakdown:
Section |  min time  |  avg time  |  max time  |%varavg| %total
---------------------------------------------------------------
Pair    | 0.45971    | 0.4857     | 0.51168    |   3.7 | 65.50
Neigh   | 0.001447   | 0.0016558  | 0.0018646  |   0.5 |  0.22
Comm    | 0.092748   | 0.11905    | 0.14535    |   7.6 | 16.05
Output  | 7.2034e-05 | 0.00010708 | 0.00014212 |   0.0 |  0.01
Modify  | 0.12658    | 0.12674    | 0.1269     |   0.0 | 17.09
Other   |            | 0.008291   |            |       |  1.12

Nlocal:             16 ave          19 max          13 min
Histogram: 1 0 0 0 0 0 0 0 0 1
Nghost:          895.5 ave         905 max         886 min
Histogram: 1 0 0 0 0 0 0 0 0 1
Neighs:           1158 ave        1180 max        1136 min
Histogram: 1 0 0 0 0 0 0 0 0 1

Total # of neighbors = 2316
Ave neighs/atom = 72.375
Neighbor list builds = 38
Dangerous builds = 0
unfix 2
# unfix 3

# NPT Production run at temperature
reset_timestep 0
variable prrunl equal 1E4
fix 3 all ave/time 1 10000 10000 c_mytemp c_mypress v_vmyvol v_avgEtotal
fix 4 all ave/time 1 10 10 c_mytemp c_mypress v_vmyvol v_avgEtotal file ${rampup_pravgfile}
fix 4 all ave/time 1 10 10 c_mytemp c_mypress v_vmyvol v_avgEtotal file rampup_pravg_900.txt
# print to file average of every 10 steps. Every 10 femptoseconds

thermo 1000 # Print every "thermo" timesteps
run ${prrunl}
run 10000
Per MPI rank memory allocation (min/avg/max) = 3.605 | 3.605 | 3.605 Mbytes
   Step          Time           Temp          PotEng         KinEng         TotEng        c_mytemp      c_mypress        Volume    
         0   0              869.75562     -104.65526      3.4851669     -101.17009      869.75562      4653.749       563.96684    
      1000   1              931.12286     -104.80199      3.7310693     -101.07092      931.12286     -4914.3267      568.09617    
      2000   2              940.72707     -104.91285      3.769554      -101.14329      940.72707      7620.0891      558.61695    
      3000   3              912.80916     -104.73297      3.6576852     -101.07528      912.80916     -830.73006      564.90985    
      4000   4              1012.8777     -105.2075       4.0586663     -101.14883      1012.8777     -6418.6474      566.58016    
      5000   5              787.12904     -104.26686      3.1540768     -101.11278      787.12904      259.04421      568.21407    
      6000   6              1057.7594     -105.50193      4.2385101     -101.26342      1057.7594     -5821.1166      563.20773    
      7000   7              925.10393     -104.78914      3.7069511     -101.08219      925.10393      3131.0963      561.9672     
      8000   8              1041.2674     -105.3138       4.1724256     -101.14138      1041.2674     -4478.0606      561.93288    
      9000   9              915.48974     -104.61309      3.6684264     -100.94466      915.48974      1020.6452      564.33402    
     10000   10             937.44887     -105.09774      3.7564181     -101.34132      937.44887     -4191.0819      564.6576     
Loop time of 0.872635 on 2 procs for 10000 steps with 32 atoms

Performance: 990.104 ns/day, 0.024 hours/ns, 11459.540 timesteps/s
97.5% CPU use with 2 MPI tasks x 1 OpenMP threads

MPI task timing breakdown:
Section |  min time  |  avg time  |  max time  |%varavg| %total
---------------------------------------------------------------
Pair    | 0.43273    | 0.50304    | 0.57334    |   9.9 | 57.65
Neigh   | 0.0012584  | 0.001493   | 0.0017276  |   0.6 |  0.17
Comm    | 0.094372   | 0.16412    | 0.23387    |  17.2 | 18.81
Output  | 6.3451e-05 | 9.8376e-05 | 0.0001333  |   0.0 |  0.01
Modify  | 0.1947     | 0.19531    | 0.19591    |   0.1 | 22.38
Other   |            | 0.008581   |            |       |  0.98

Nlocal:             16 ave          17 max          15 min
Histogram: 1 0 0 0 0 0 0 0 0 1
Nghost:          897.5 ave         900 max         895 min
Histogram: 1 0 0 0 0 0 0 0 0 1
Neighs:           1157 ave        1467 max         847 min
Histogram: 1 0 0 0 0 0 0 0 0 1

Total # of neighbors = 2314
Ave neighs/atom = 72.3125
Neighbor list builds = 34
Dangerous builds = 0
variable final_temp_avg equal f_3[1]
variable final_press_avg equal f_3[2]
variable final_vol_avg equal f_3[3]
variable final_etot_avg equal f_3[4]

print "${final_temp_avg} ${final_press_avg} ${final_vol_avg} ${final_etot_avg}" append ${prallfile}
print "${final_temp_avg} ${final_press_avg} ${final_vol_avg} ${final_etot_avg}" append prall.txt
899.11232459332 -191.563384533093 564.030170080501 -3.16291242485861

unfix 3
unfix 4
#unfix 1
next i
jump Ramp.txt.in LoopStart
variable i loop ${LoopSize}
variable i loop 21
print " "
 
print "*******LOOP # $i*********"
*******LOOP # 2*********
print " "
 
variable tempvar equal ${TempStep}*${i}+${TempInitial}-${TempStep}
variable tempvar equal 25*${i}+${TempInitial}-${TempStep}
variable tempvar equal 25*2+${TempInitial}-${TempStep}
variable tempvar equal 25*2+900-${TempStep}
variable tempvar equal 25*2+900-25
variable rampup_eqavgfile string rampup_eqavg_${tempvar}.txt
variable rampup_eqavgfile string rampup_eqavg_925.txt
variable rampup_pravgfile string rampup_pravg_${tempvar}.txt
variable rampup_pravgfile string rampup_pravg_925.txt
# variable rampup_eqfile string rampup_eq_${tempvar}.txt

# NPT Equilibration run at temperature
reset_timestep 0
variable eqrunl equal 1E4 # Keep > 10000 to avoid crashing fix lines below for time avg output
fix 1 all npt temp ${tempvar} ${tempvar} 0.1 iso 1 1 1 drag 1 # npt ensemble molecular dynamics.
fix 1 all npt temp 925 ${tempvar} 0.1 iso 1 1 1 drag 1 
fix 1 all npt temp 925 925 0.1 iso 1 1 1 drag 1 

fix 2 all ave/time 1 10 10 c_mytemp c_mypress v_vmyvol v_avgEtotal file ${rampup_eqavgfile}
fix 2 all ave/time 1 10 10 c_mytemp c_mypress v_vmyvol v_avgEtotal file rampup_eqavg_925.txt
# print to file average of every 10 steps. Every 10 femptoseconds


# fix 3 all ave/time 1 10000 10000 c_mytemp c_mypress v_vmyvol v_avgEtotal file ${rampup_eqfile}
thermo 1000 # Print every "thermo" timesteps
run ${eqrunl}
run 10000
Per MPI rank memory allocation (min/avg/max) = 3.605 | 3.605 | 3.605 Mbytes
   Step          Time           Temp          PotEng         KinEng         TotEng        c_mytemp      c_mypress        Volume    
         0   0              937.44887     -105.09774      3.7564181     -101.34132      937.44887     -4191.0819      564.6576     
      1000   1              976.0913      -105.07249      3.9112608     -101.16123      976.0913       1612.7009      561.05966    
      2000   2              1114.5493     -105.39257      4.466071      -100.9265       1114.5493     -2826.2339      563.48652    
      3000   3              938.52767     -104.62588      3.7607409     -100.86514      938.52767      2583.3456      564.17653    
      4000   4              845.59786     -104.44502      3.3883652     -101.05666      845.59786      673.1413       565.88686    
      5000   5              1036.805      -105.30782      4.1545444     -101.15327      1036.805      -6316.3611      566.36198    
      6000   6              773.5403      -104.036        3.0996259     -100.93637      773.5403      -586.74186      569.79147    
      7000   7              946.00861     -104.88195      3.7907175     -101.09123      946.00861      3160.0535      562.71647    
      8000   8              867.73029     -104.45424      3.4770512     -100.97719      867.73029      201.02589      564.6379     
      9000   9              1035.8446     -105.0357       4.1506963     -100.885        1035.8446     -9328.6476      569.68859    
     10000   10             768.9707      -104.20017      3.0813152     -101.11885      768.9707       8020.0451      562.11507    
Loop time of 0.760631 on 2 procs for 10000 steps with 32 atoms

Performance: 1135.899 ns/day, 0.021 hours/ns, 13146.985 timesteps/s
98.1% CPU use with 2 MPI tasks x 1 OpenMP threads

MPI task timing breakdown:
Section |  min time  |  avg time  |  max time  |%varavg| %total
---------------------------------------------------------------
Pair    | 0.44701    | 0.48959    | 0.53216    |   6.1 | 64.37
Neigh   | 0.0017584  | 0.0020461  | 0.0023339  |   0.6 |  0.27
Comm    | 0.092285   | 0.13499    | 0.1777     |  11.6 | 17.75
Output  | 0.00013559 | 0.00030066 | 0.00046574 |   0.0 |  0.04
Modify  | 0.1254     | 0.12541    | 0.12542    |   0.0 | 16.49
Other   |            | 0.008293   |            |       |  1.09

Nlocal:             16 ave          17 max          15 min
Histogram: 1 0 0 0 0 0 0 0 0 1
Nghost:          870.5 ave         886 max         855 min
Histogram: 1 0 0 0 0 0 0 0 0 1
Neighs:           1152 ave        1429 max         875 min
Histogram: 1 0 0 0 0 0 0 0 0 1

Total # of neighbors = 2304
Ave neighs/atom = 72
Neighbor list builds = 47
Dangerous builds = 0
unfix 2
# unfix 3

# NPT Production run at temperature
reset_timestep 0
variable prrunl equal 1E4
fix 3 all ave/time 1 10000 10000 c_mytemp c_mypress v_vmyvol v_avgEtotal
fix 4 all ave/time 1 10 10 c_mytemp c_mypress v_vmyvol v_avgEtotal file ${rampup_pravgfile}
fix 4 all ave/time 1 10 10 c_mytemp c_mypress v_vmyvol v_avgEtotal file rampup_pravg_925.txt
# print to file average of every 10 steps. Every 10 femptoseconds

thermo 1000 # Print every "thermo" timesteps
run ${prrunl}
run 10000
Per MPI rank memory allocation (min/avg/max) = 3.605 | 3.605 | 3.605 Mbytes
   Step          Time           Temp          PotEng         KinEng         TotEng        c_mytemp      c_mypress        Volume    
         0   0              768.9707      -104.20017      3.0813152     -101.11885      768.9707       8020.0451      562.11507    
      1000   1              881.98731     -104.52578      3.53418       -100.9916       881.98731      10900.158      559.35907    
      2000   2              1140.5653     -105.42729      4.5703187     -100.85697      1140.5653     -7207.0543      566.909      
      3000   3              889.9696      -104.60283      3.5661656     -101.03667      889.9696      -2195.8535      564.71484    
      4000   4              950.50941     -104.97025      3.8087525     -101.1615       950.50941     -3702.4452      566.52293    
      5000   5              890.62606     -104.5782       3.5687961     -101.0094       890.62606      1120.7988      564.02279    
      6000   6              996.45718     -105.0028       3.9928682     -101.00993      996.45718     -5970.7021      567.45427    
      7000   7              953.05468     -104.81128      3.8189516     -100.99233      953.05468     -598.60855      566.36096    
      8000   8              780.46618     -104.28524      3.1273783     -101.15786      780.46618      1167.9119      564.04672    
      9000   9              907.0077      -104.61134      3.6344383     -100.9769       907.0077      -3521.0495      568.11805    
     10000   10             903.65877     -104.72793      3.621019      -101.10691      903.65877     -4859.6721      568.33992    
Loop time of 0.829512 on 2 procs for 10000 steps with 32 atoms

Performance: 1041.577 ns/day, 0.023 hours/ns, 12055.287 timesteps/s
97.7% CPU use with 2 MPI tasks x 1 OpenMP threads

MPI task timing breakdown:
Section |  min time  |  avg time  |  max time  |%varavg| %total
---------------------------------------------------------------
Pair    | 0.46513    | 0.4918     | 0.51847    |   3.8 | 59.29
Neigh   | 0.0015736  | 0.0018265  | 0.0020794  |   0.6 |  0.22
Comm    | 0.12082    | 0.14781    | 0.17481    |   7.0 | 17.82
Output  | 6.304e-05  | 9.8122e-05 | 0.0001332  |   0.0 |  0.01
Modify  | 0.17929    | 0.17942    | 0.17955    |   0.0 | 21.63
Other   |            | 0.008553   |            |       |  1.03

Nlocal:             16 ave          17 max          15 min
Histogram: 1 0 0 0 0 0 0 0 0 1
Nghost:            830 ave         835 max         825 min
Histogram: 1 0 0 0 0 0 0 0 0 1
Neighs:         1165.5 ave        1300 max        1031 min
Histogram: 1 0 0 0 0 0 0 0 0 1

Total # of neighbors = 2331
Ave neighs/atom = 72.84375
Neighbor list builds = 42
Dangerous builds = 0
variable final_temp_avg equal f_3[1]
variable final_press_avg equal f_3[2]
variable final_vol_avg equal f_3[3]
variable final_etot_avg equal f_3[4]

print "${final_temp_avg} ${final_press_avg} ${final_vol_avg} ${final_etot_avg}" append ${prallfile}
print "${final_temp_avg} ${final_press_avg} ${final_vol_avg} ${final_etot_avg}" append prall.txt
923.784543621901 -253.567490409354 564.620413956163 -3.15660538911653

unfix 3
unfix 4
#unfix 1
next i
jump Ramp.txt.in LoopStart
variable i loop ${LoopSize}
variable i loop 21
print " "
 
print "*******LOOP # $i*********"
*******LOOP # 3*********
print " "
 
variable tempvar equal ${TempStep}*${i}+${TempInitial}-${TempStep}
variable tempvar equal 25*${i}+${TempInitial}-${TempStep}
variable tempvar equal 25*3+${TempInitial}-${TempStep}
variable tempvar equal 25*3+900-${TempStep}
variable tempvar equal 25*3+900-25
variable rampup_eqavgfile string rampup_eqavg_${tempvar}.txt
variable rampup_eqavgfile string rampup_eqavg_950.txt
variable rampup_pravgfile string rampup_pravg_${tempvar}.txt
variable rampup_pravgfile string rampup_pravg_950.txt
# variable rampup_eqfile string rampup_eq_${tempvar}.txt

# NPT Equilibration run at temperature
reset_timestep 0
variable eqrunl equal 1E4 # Keep > 10000 to avoid crashing fix lines below for time avg output
fix 1 all npt temp ${tempvar} ${tempvar} 0.1 iso 1 1 1 drag 1 # npt ensemble molecular dynamics.
fix 1 all npt temp 950 ${tempvar} 0.1 iso 1 1 1 drag 1 
fix 1 all npt temp 950 950 0.1 iso 1 1 1 drag 1 

fix 2 all ave/time 1 10 10 c_mytemp c_mypress v_vmyvol v_avgEtotal file ${rampup_eqavgfile}
fix 2 all ave/time 1 10 10 c_mytemp c_mypress v_vmyvol v_avgEtotal file rampup_eqavg_950.txt
# print to file average of every 10 steps. Every 10 femptoseconds


# fix 3 all ave/time 1 10000 10000 c_mytemp c_mypress v_vmyvol v_avgEtotal file ${rampup_eqfile}
thermo 1000 # Print every "thermo" timesteps
run ${eqrunl}
run 10000
Per MPI rank memory allocation (min/avg/max) = 3.605 | 3.605 | 3.605 Mbytes
   Step          Time           Temp          PotEng         KinEng         TotEng        c_mytemp      c_mypress        Volume    
         0   0              903.65877     -104.72793      3.621019      -101.10691      903.65877     -4859.6721      568.33992    
      1000   1              1075.5332     -105.05316      4.3097309     -100.74343      1075.5332     -1272.0565      563.9827     
      2000   2              919.38285     -104.36494      3.6840264     -100.68092      919.38285      642.67188      564.1773     
      3000   3              976.40164     -104.7562       3.9125043     -100.8437       976.40164     -4044.7902      569.07624    
      4000   4              918.49208     -104.40899      3.680457      -100.72853      918.49208      6574.0048      560.77857    
      5000   5              829.39573     -104.0111       3.3234422     -100.68766      829.39573      814.58989      567.35655    
      6000   6              1139.1201     -105.05959      4.5645278     -100.49506      1139.1201     -6194.216       569.40501    
      7000   7              954.99029     -104.53511      3.8267077     -100.7084       954.99029     -439.35134      564.31859    
      8000   8              887.93563     -104.27398      3.5580153     -100.71596      887.93563     -3174.6304      570.48103    
      9000   9              1006.3099     -104.46642      4.0323486     -100.43407      1006.3099     -3210.9656      568.34513    
     10000   10             980.15975     -104.43545      3.9275633     -100.50789      980.15975      1335.7894      566.66284    
Loop time of 0.736325 on 2 procs for 10000 steps with 32 atoms

Performance: 1173.395 ns/day, 0.020 hours/ns, 13580.957 timesteps/s
97.7% CPU use with 2 MPI tasks x 1 OpenMP threads

MPI task timing breakdown:
Section |  min time  |  avg time  |  max time  |%varavg| %total
---------------------------------------------------------------
Pair    | 0.45029    | 0.48221    | 0.51413    |   4.6 | 65.49
Neigh   | 0.0032846  | 0.0038186  | 0.0043526  |   0.9 |  0.52
Comm    | 0.092259   | 0.12482    | 0.15738    |   9.2 | 16.95
Output  | 0.00019836 | 0.00023339 | 0.00026842 |   0.0 |  0.03
Modify  | 0.11735    | 0.11735    | 0.11735    |   0.0 | 15.94
Other   |            | 0.007887   |            |       |  1.07

Nlocal:             16 ave          18 max          14 min
Histogram: 1 0 0 0 0 0 0 0 0 1
Nghost:          840.5 ave         859 max         822 min
Histogram: 1 0 0 0 0 0 0 0 0 1
Neighs:           1154 ave        1230 max        1078 min
Histogram: 1 0 0 0 0 0 0 0 0 1

Total # of neighbors = 2308
Ave neighs/atom = 72.125
Neighbor list builds = 89
Dangerous builds = 0
unfix 2
# unfix 3

# NPT Production run at temperature
reset_timestep 0
variable prrunl equal 1E4
fix 3 all ave/time 1 10000 10000 c_mytemp c_mypress v_vmyvol v_avgEtotal
fix 4 all ave/time 1 10 10 c_mytemp c_mypress v_vmyvol v_avgEtotal file ${rampup_pravgfile}
fix 4 all ave/time 1 10 10 c_mytemp c_mypress v_vmyvol v_avgEtotal file rampup_pravg_950.txt
# print to file average of every 10 steps. Every 10 femptoseconds

thermo 1000 # Print every "thermo" timesteps
run ${prrunl}
run 10000
Per MPI rank memory allocation (min/avg/max) = 3.605 | 3.605 | 3.605 Mbytes
   Step          Time           Temp          PotEng         KinEng         TotEng        c_mytemp      c_mypress        Volume    
         0   0              980.15975     -104.43545      3.9275633     -100.50789      980.15975      1335.7894      566.66284    
      1000   1              907.14321     -104.21284      3.6349814     -100.57786      907.14321      3321.9713      563.47545    
      2000   2              895.97162     -104.5042       3.590216      -100.91399      895.97162     -146.98531      565.44491    
      3000   3              950.57935     -104.37303      3.8090327     -100.56399      950.57935      4309.9607      562.36441    
      4000   4              926.54364     -104.57253      3.7127201     -100.85981      926.54364     -605.88668      566.21134    
      5000   5              893.53496     -104.56811      3.5804522     -100.98766      893.53496      4642.8679      564.26691    
      6000   6              872.58552     -103.98583      3.4965065     -100.48932      872.58552      5196.5879      565.82978    
      7000   7              760.43172     -103.71299      3.0470989     -100.6659       760.43172      4433.4727      566.93176    
      8000   8              916.89228     -104.46917      3.6740465     -100.79512      916.89228      6934.4417      563.65382    
      9000   9              810.18989     -103.97119      3.2464831     -100.7247       810.18989     -207.56448      570.00059    
     10000   10             844.63885     -104.05886      3.3845223     -100.67434      844.63885      1682.1095      566.88918    
Loop time of 0.817829 on 2 procs for 10000 steps with 32 atoms

Performance: 1056.456 ns/day, 0.023 hours/ns, 12227.499 timesteps/s
98.5% CPU use with 2 MPI tasks x 1 OpenMP threads

MPI task timing breakdown:
Section |  min time  |  avg time  |  max time  |%varavg| %total
---------------------------------------------------------------
Pair    | 0.44623    | 0.49072    | 0.53522    |   6.4 | 60.00
Neigh   | 0.0025037  | 0.0029709  | 0.0034381  |   0.9 |  0.36
Comm    | 0.092785   | 0.13739    | 0.18199    |  12.0 | 16.80
Output  | 0.000162   | 0.00036065 | 0.0005593  |   0.0 |  0.04
Modify  | 0.1781     | 0.17815    | 0.1782     |   0.0 | 21.78
Other   |            | 0.008232   |            |       |  1.01

Nlocal:             16 ave          17 max          15 min
Histogram: 1 0 0 0 0 0 0 0 0 1
Nghost:          846.5 ave         855 max         838 min
Histogram: 1 0 0 0 0 0 0 0 0 1
Neighs:           1155 ave        1331 max         979 min
Histogram: 1 0 0 0 0 0 0 0 0 1

Total # of neighbors = 2310
Ave neighs/atom = 72.1875
Neighbor list builds = 69
Dangerous builds = 0
variable final_temp_avg equal f_3[1]
variable final_press_avg equal f_3[2]
variable final_vol_avg equal f_3[3]
variable final_etot_avg equal f_3[4]

print "${final_temp_avg} ${final_press_avg} ${final_vol_avg} ${final_etot_avg}" append ${prallfile}
print "${final_temp_avg} ${final_press_avg} ${final_vol_avg} ${final_etot_avg}" append prall.txt
948.720554739684 -152.803724615942 566.460248843076 -3.14643930492007

unfix 3
unfix 4
#unfix 1
next i
jump Ramp.txt.in LoopStart
variable i loop ${LoopSize}
variable i loop 21
print " "
 
print "*******LOOP # $i*********"
*******LOOP # 4*********
print " "
 
variable tempvar equal ${TempStep}*${i}+${TempInitial}-${TempStep}
variable tempvar equal 25*${i}+${TempInitial}-${TempStep}
variable tempvar equal 25*4+${TempInitial}-${TempStep}
variable tempvar equal 25*4+900-${TempStep}
variable tempvar equal 25*4+900-25
variable rampup_eqavgfile string rampup_eqavg_${tempvar}.txt
variable rampup_eqavgfile string rampup_eqavg_975.txt
variable rampup_pravgfile string rampup_pravg_${tempvar}.txt
variable rampup_pravgfile string rampup_pravg_975.txt
# variable rampup_eqfile string rampup_eq_${tempvar}.txt

# NPT Equilibration run at temperature
reset_timestep 0
variable eqrunl equal 1E4 # Keep > 10000 to avoid crashing fix lines below for time avg output
fix 1 all npt temp ${tempvar} ${tempvar} 0.1 iso 1 1 1 drag 1 # npt ensemble molecular dynamics.
fix 1 all npt temp 975 ${tempvar} 0.1 iso 1 1 1 drag 1 
fix 1 all npt temp 975 975 0.1 iso 1 1 1 drag 1 

fix 2 all ave/time 1 10 10 c_mytemp c_mypress v_vmyvol v_avgEtotal file ${rampup_eqavgfile}
fix 2 all ave/time 1 10 10 c_mytemp c_mypress v_vmyvol v_avgEtotal file rampup_eqavg_975.txt
# print to file average of every 10 steps. Every 10 femptoseconds


# fix 3 all ave/time 1 10000 10000 c_mytemp c_mypress v_vmyvol v_avgEtotal file ${rampup_eqfile}
thermo 1000 # Print every "thermo" timesteps
run ${eqrunl}
run 10000
Per MPI rank memory allocation (min/avg/max) = 3.605 | 3.605 | 3.605 Mbytes
   Step          Time           Temp          PotEng         KinEng         TotEng        c_mytemp      c_mypress        Volume    
         0   0              844.63885     -104.05886      3.3845223     -100.67434      844.63885      1682.1095      566.88918    
      1000   1              818.59671     -103.84082      3.2801698     -100.56065      818.59671      8640.7025      564.25062    
      2000   2              776.55025     -103.78996      3.111687      -100.67828      776.55025      7089.1405      564.76919    
      3000   3              1019.4893     -104.5284       4.0851593     -100.44324      1019.4893     -1085.5926      568.58712    
      4000   4              1069.4618     -104.80699      4.2854022     -100.52159      1069.4618     -8510.3065      569.80513    
      5000   5              798.69132     -103.74205      3.2004076     -100.54164      798.69132      2517.8171      567.3709     
      6000   6              870.24961     -103.98032      3.4871463     -100.49317      870.24961      4100.1899      566.63771    
      7000   7              1136.6738     -104.97459      4.5547253     -100.41986      1136.6738     -4938.1747      567.53737    
      8000   8              1142.4361     -104.93303      4.5778151     -100.35522      1142.4361     -6770.4852      569.00258    
      9000   9              989.7673      -104.48628      3.9660614     -100.52021      989.7673      -8701.9262      571.80674    
     10000   10             1000.1633     -104.36324      4.007719      -100.35552      1000.1633     -1788.3929      568.18847    
Loop time of 0.75056 on 2 procs for 10000 steps with 32 atoms

Performance: 1151.141 ns/day, 0.021 hours/ns, 13323.392 timesteps/s
97.9% CPU use with 2 MPI tasks x 1 OpenMP threads

MPI task timing breakdown:
Section |  min time  |  avg time  |  max time  |%varavg| %total
---------------------------------------------------------------
Pair    | 0.44731    | 0.48684    | 0.52636    |   5.7 | 64.86
Neigh   | 0.0030449  | 0.0035822  | 0.0041195  |   0.9 |  0.48
Comm    | 0.092045   | 0.13186    | 0.17168    |  11.0 | 17.57
Output  | 6.37e-05   | 9.8376e-05 | 0.00013305 |   0.0 |  0.01
Modify  | 0.11976    | 0.11998    | 0.12021    |   0.1 | 15.99
Other   |            | 0.008198   |            |       |  1.09

Nlocal:             16 ave          19 max          13 min
Histogram: 1 0 0 0 0 0 0 0 0 1
Nghost:            875 ave         881 max         869 min
Histogram: 1 0 0 0 0 0 0 0 0 1
Neighs:         1155.5 ave        1172 max        1139 min
Histogram: 1 0 0 0 0 0 0 0 0 1

Total # of neighbors = 2311
Ave neighs/atom = 72.21875
Neighbor list builds = 83
Dangerous builds = 0
unfix 2
# unfix 3

# NPT Production run at temperature
reset_timestep 0
variable prrunl equal 1E4
fix 3 all ave/time 1 10000 10000 c_mytemp c_mypress v_vmyvol v_avgEtotal
fix 4 all ave/time 1 10 10 c_mytemp c_mypress v_vmyvol v_avgEtotal file ${rampup_pravgfile}
fix 4 all ave/time 1 10 10 c_mytemp c_mypress v_vmyvol v_avgEtotal file rampup_pravg_975.txt
# print to file average of every 10 steps. Every 10 femptoseconds

thermo 1000 # Print every "thermo" timesteps
run ${prrunl}
run 10000
Per MPI rank memory allocation (min/avg/max) = 3.605 | 3.605 | 3.605 Mbytes
   Step          Time           Temp          PotEng         KinEng         TotEng        c_mytemp      c_mypress        Volume    
         0   0              1000.1633     -104.36324      4.007719      -100.35552      1000.1633     -1788.3929      568.18847    
      1000   1              1034.0316     -104.53356      4.1434313     -100.39013      1034.0316     -2963.314       569.29605    
      2000   2              985.00956     -104.48303      3.9469969     -100.53603      985.00956     -5248.0709      570.93739    
      3000   3              1020.3814     -104.42793      4.0887339     -100.3392       1020.3814     -5417.3872      570.95037    
      4000   4              1103.7021     -104.83715      4.4226055     -100.41454      1103.7021     -4508.8629      568.88026    
      5000   5              954.43137     -104.17883      3.824468      -100.35436      954.43137     -5917.4322      571.44609    
      6000   6              961.30812     -104.33569      3.8520236     -100.48366      961.30812     -8499.3064      574.44913    
      7000   7              1054.78       -104.80687      4.2265715     -100.5803       1054.78       -2425.785       565.18577    
      8000   8              1002.408      -104.39141      4.0167136     -100.37469      1002.408       112.79794      569.25045    
      9000   9              793.3819      -103.68505      3.1791324     -100.50591      793.3819       834.30287      568.73616    
     10000   10             1081.7129     -104.68415      4.3344934     -100.34966      1081.7129     -2888.0669      566.28804    
Loop time of 0.817586 on 2 procs for 10000 steps with 32 atoms

Performance: 1056.770 ns/day, 0.023 hours/ns, 12231.129 timesteps/s
97.6% CPU use with 2 MPI tasks x 1 OpenMP threads

MPI task timing breakdown:
Section |  min time  |  avg time  |  max time  |%varavg| %total
---------------------------------------------------------------
Pair    | 0.45362    | 0.48654    | 0.51946    |   4.7 | 59.51
Neigh   | 0.0033797  | 0.0039406  | 0.0045016  |   0.9 |  0.48
Comm    | 0.092121   | 0.12564    | 0.15915    |   9.5 | 15.37
Output  | 6.4965e-05 | 9.8196e-05 | 0.00013143 |   0.0 |  0.01
Modify  | 0.19314    | 0.19317    | 0.19319    |   0.0 | 23.63
Other   |            | 0.008205   |            |       |  1.00

Nlocal:             16 ave          16 max          16 min
Histogram: 2 0 0 0 0 0 0 0 0 0
Nghost:          855.5 ave         866 max         845 min
Histogram: 1 0 0 0 0 0 0 0 0 1
Neighs:         1160.5 ave        1409 max         912 min
Histogram: 1 0 0 0 0 0 0 0 0 1

Total # of neighbors = 2321
Ave neighs/atom = 72.53125
Neighbor list builds = 92
Dangerous builds = 0
variable final_temp_avg equal f_3[1]
variable final_press_avg equal f_3[2]
variable final_vol_avg equal f_3[3]
variable final_etot_avg equal f_3[4]

print "${final_temp_avg} ${final_press_avg} ${final_vol_avg} ${final_etot_avg}" append ${prallfile}
print "${final_temp_avg} ${final_press_avg} ${final_vol_avg} ${final_etot_avg}" append prall.txt
973.405440304609 -234.644282145796 567.593757019596 -3.13823462357105

unfix 3
unfix 4
#unfix 1
next i
jump Ramp.txt.in LoopStart
variable i loop ${LoopSize}
variable i loop 21
print " "
 
print "*******LOOP # $i*********"
*******LOOP # 5*********
print " "
 
variable tempvar equal ${TempStep}*${i}+${TempInitial}-${TempStep}
variable tempvar equal 25*${i}+${TempInitial}-${TempStep}
variable tempvar equal 25*5+${TempInitial}-${TempStep}
variable tempvar equal 25*5+900-${TempStep}
variable tempvar equal 25*5+900-25
variable rampup_eqavgfile string rampup_eqavg_${tempvar}.txt
variable rampup_eqavgfile string rampup_eqavg_1000.txt
variable rampup_pravgfile string rampup_pravg_${tempvar}.txt
variable rampup_pravgfile string rampup_pravg_1000.txt
# variable rampup_eqfile string rampup_eq_${tempvar}.txt

# NPT Equilibration run at temperature
reset_timestep 0
variable eqrunl equal 1E4 # Keep > 10000 to avoid crashing fix lines below for time avg output
fix 1 all npt temp ${tempvar} ${tempvar} 0.1 iso 1 1 1 drag 1 # npt ensemble molecular dynamics.
fix 1 all npt temp 1000 ${tempvar} 0.1 iso 1 1 1 drag 1 
fix 1 all npt temp 1000 1000 0.1 iso 1 1 1 drag 1 

fix 2 all ave/time 1 10 10 c_mytemp c_mypress v_vmyvol v_avgEtotal file ${rampup_eqavgfile}
fix 2 all ave/time 1 10 10 c_mytemp c_mypress v_vmyvol v_avgEtotal file rampup_eqavg_1000.txt
# print to file average of every 10 steps. Every 10 femptoseconds


# fix 3 all ave/time 1 10000 10000 c_mytemp c_mypress v_vmyvol v_avgEtotal file ${rampup_eqfile}
thermo 1000 # Print every "thermo" timesteps
run ${eqrunl}
run 10000
Per MPI rank memory allocation (min/avg/max) = 3.605 | 3.605 | 3.605 Mbytes
   Step          Time           Temp          PotEng         KinEng         TotEng        c_mytemp      c_mypress        Volume    
         0   0              1081.7129     -104.68415      4.3344934     -100.34966      1081.7129     -2888.0669      566.28804    
      1000   1              947.19272     -104.15746      3.7954623     -100.36199      947.19272     -8439.0646      572.82785    
      2000   2              760.71916     -103.31308      3.0482507     -100.26483      760.71916     -6645.9413      578.99336    
      3000   3              1047.962      -104.32431      4.1992513     -100.12506      1047.962       8296.1882      563.28371    
      4000   4              851.59135     -103.48548      3.4123815     -100.0731       851.59135      4476.5102      572.27704    
      5000   5              1192.1853     -104.8596       4.7771635     -100.08243      1192.1853     -2684.6513      566.91015    
      6000   6              1088.5121     -104.55576      4.3617382     -100.19402      1088.5121     -2076.4692      568.69842    
      7000   7              1123.5581     -104.74239      4.5021697     -100.24022      1123.5581     -320.14943      567.21684    
      8000   8              1049.7887     -104.60983      4.2065711     -100.40326      1049.7887     -112.54024      566.852      
      9000   9              923.51019     -103.9674       3.7005649     -100.26684      923.51019     -3201.0077      570.21185    
     10000   10             962.87438     -104.01779      3.8582998     -100.15949      962.87438     -5253.2886      572.61686    
Loop time of 0.737888 on 2 procs for 10000 steps with 32 atoms

Performance: 1170.909 ns/day, 0.020 hours/ns, 13552.184 timesteps/s
97.1% CPU use with 2 MPI tasks x 1 OpenMP threads

MPI task timing breakdown:
Section |  min time  |  avg time  |  max time  |%varavg| %total
---------------------------------------------------------------
Pair    | 0.45212    | 0.4835     | 0.51489    |   4.5 | 65.53
Neigh   | 0.0039236  | 0.0045042  | 0.0050849  |   0.9 |  0.61
Comm    | 0.092729   | 0.12484    | 0.15694    |   9.1 | 16.92
Output  | 6.283e-05  | 0.00010333 | 0.00014383 |   0.0 |  0.01
Modify  | 0.11694    | 0.11703    | 0.11712    |   0.0 | 15.86
Other   |            | 0.007912   |            |       |  1.07

Nlocal:             16 ave          16 max          16 min
Histogram: 2 0 0 0 0 0 0 0 0 0
Nghost:          813.5 ave         818 max         809 min
Histogram: 1 0 0 0 0 0 0 0 0 1
Neighs:           1167 ave        1398 max         936 min
Histogram: 1 0 0 0 0 0 0 0 0 1

Total # of neighbors = 2334
Ave neighs/atom = 72.9375
Neighbor list builds = 105
Dangerous builds = 0
unfix 2
# unfix 3

# NPT Production run at temperature
reset_timestep 0
variable prrunl equal 1E4
fix 3 all ave/time 1 10000 10000 c_mytemp c_mypress v_vmyvol v_avgEtotal
fix 4 all ave/time 1 10 10 c_mytemp c_mypress v_vmyvol v_avgEtotal file ${rampup_pravgfile}
fix 4 all ave/time 1 10 10 c_mytemp c_mypress v_vmyvol v_avgEtotal file rampup_pravg_1000.txt
# print to file average of every 10 steps. Every 10 femptoseconds

thermo 1000 # Print every "thermo" timesteps
run ${prrunl}
run 10000
Per MPI rank memory allocation (min/avg/max) = 3.605 | 3.605 | 3.605 Mbytes
   Step          Time           Temp          PotEng         KinEng         TotEng        c_mytemp      c_mypress        Volume    
         0   0              962.87438     -104.01779      3.8582998     -100.15949      962.87438     -5253.2886      572.61686    
      1000   1              826.35132     -103.65758      3.311243      -100.34633      826.35132      12400.378      560.88191    
      2000   2              1117.4175     -104.77343      4.4775639     -100.29587      1117.4175     -1462.5715      567.34908    
      3000   3              1116.069      -104.35424      4.4721603     -99.882075      1116.069      -11167.585      576.65875    
      4000   4              1090.271      -104.62006      4.3687861     -100.25127      1090.271      -2927.6458      568.53225    
      5000   5              935.0102      -103.82583      3.7466462     -100.07918      935.0102      -366.23937      571.25803    
      6000   6              1050.1461     -104.3893       4.2080031     -100.1813       1050.1461     -5895.968       570.80379    
      7000   7              912.16062     -103.73355      3.6550865     -100.07847      912.16062      3543.0016      568.6231     
      8000   8              1198.5011     -105.15347      4.8024714     -100.351        1198.5011     -10288.219      570.83307    
      9000   9              954.20874     -103.9599       3.823576      -100.13632      954.20874      11700.149      562.43348    
     10000   10             1003.0759     -103.74551      4.0193899     -99.726115      1003.0759     -1172.7779      573.11998    
Loop time of 0.807784 on 2 procs for 10000 steps with 32 atoms

Performance: 1069.593 ns/day, 0.022 hours/ns, 12379.549 timesteps/s
98.2% CPU use with 2 MPI tasks x 1 OpenMP threads

MPI task timing breakdown:
Section |  min time  |  avg time  |  max time  |%varavg| %total
---------------------------------------------------------------
Pair    | 0.44926    | 0.48754    | 0.52581    |   5.5 | 60.35
Neigh   | 0.003391   | 0.0039992  | 0.0046074  |   1.0 |  0.50
Comm    | 0.092604   | 0.13136    | 0.17012    |  10.7 | 16.26
Output  | 0.00013226 | 0.00029559 | 0.00045892 |   0.0 |  0.04
Modify  | 0.1763     | 0.17646    | 0.17662    |   0.0 | 21.84
Other   |            | 0.008128   |            |       |  1.01

Nlocal:             16 ave          19 max          13 min
Histogram: 1 0 0 0 0 0 0 0 0 1
Nghost:          801.5 ave         809 max         794 min
Histogram: 1 0 0 0 0 0 0 0 0 1
Neighs:           1163 ave        1188 max        1138 min
Histogram: 1 0 0 0 0 0 0 0 0 1

Total # of neighbors = 2326
Ave neighs/atom = 72.6875
Neighbor list builds = 93
Dangerous builds = 0
variable final_temp_avg equal f_3[1]
variable final_press_avg equal f_3[2]
variable final_vol_avg equal f_3[3]
variable final_etot_avg equal f_3[4]

print "${final_temp_avg} ${final_press_avg} ${final_vol_avg} ${final_etot_avg}" append ${prallfile}
print "${final_temp_avg} ${final_press_avg} ${final_vol_avg} ${final_etot_avg}" append prall.txt
997.509299138777 -254.001015458794 568.861919893197 -3.13084512108351

unfix 3
unfix 4
#unfix 1
next i
jump Ramp.txt.in LoopStart
variable i loop ${LoopSize}
variable i loop 21
print " "
 
print "*******LOOP # $i*********"
*******LOOP # 6*********
print " "
 
variable tempvar equal ${TempStep}*${i}+${TempInitial}-${TempStep}
variable tempvar equal 25*${i}+${TempInitial}-${TempStep}
variable tempvar equal 25*6+${TempInitial}-${TempStep}
variable tempvar equal 25*6+900-${TempStep}
variable tempvar equal 25*6+900-25
variable rampup_eqavgfile string rampup_eqavg_${tempvar}.txt
variable rampup_eqavgfile string rampup_eqavg_1025.txt
variable rampup_pravgfile string rampup_pravg_${tempvar}.txt
variable rampup_pravgfile string rampup_pravg_1025.txt
# variable rampup_eqfile string rampup_eq_${tempvar}.txt

# NPT Equilibration run at temperature
reset_timestep 0
variable eqrunl equal 1E4 # Keep > 10000 to avoid crashing fix lines below for time avg output
fix 1 all npt temp ${tempvar} ${tempvar} 0.1 iso 1 1 1 drag 1 # npt ensemble molecular dynamics.
fix 1 all npt temp 1025 ${tempvar} 0.1 iso 1 1 1 drag 1 
fix 1 all npt temp 1025 1025 0.1 iso 1 1 1 drag 1 

fix 2 all ave/time 1 10 10 c_mytemp c_mypress v_vmyvol v_avgEtotal file ${rampup_eqavgfile}
fix 2 all ave/time 1 10 10 c_mytemp c_mypress v_vmyvol v_avgEtotal file rampup_eqavg_1025.txt
# print to file average of every 10 steps. Every 10 femptoseconds


# fix 3 all ave/time 1 10000 10000 c_mytemp c_mypress v_vmyvol v_avgEtotal file ${rampup_eqfile}
thermo 1000 # Print every "thermo" timesteps
run ${eqrunl}
run 10000
Per MPI rank memory allocation (min/avg/max) = 3.605 | 3.605 | 3.605 Mbytes
   Step          Time           Temp          PotEng         KinEng         TotEng        c_mytemp      c_mypress        Volume    
         0   0              1003.0759     -103.74551      4.0193899     -99.726115      1003.0759     -1172.7779      573.11998    
      1000   1              946.1088      -103.63807      3.791119      -99.84695       946.1088       3941.9705      568.88495    
      2000   2              1018.0686     -103.85617      4.0794664     -99.776702      1018.0686     -6922.174       577.29752    
      3000   3              748.57255     -102.80744      2.9995785     -99.807859      748.57255      10959.514      567.71543    
      4000   4              1061.4345     -104.2694       4.2532364     -100.01616      1061.4345      7821.5672      563.45638    
      5000   5              874.81286     -103.69459      3.5054315     -100.18916      874.81286     -3650.063       573.77157    
      6000   6              1094.3044     -104.07294      4.3849483     -99.687994      1094.3044     -8890.3087      575.3615     
      7000   7              1006.6506     -103.94239      4.033714      -99.908674      1006.6506      6583.3985      565.21886    
      8000   8              1081.1672     -104.16202      4.3323067     -99.829716      1081.1672     -1783.8891      569.10671    
      9000   9              1132.6309     -104.33214      4.538525      -99.793615      1132.6309     -8721.3685      573.97556    
     10000   10             1292.0846     -105.13792      5.1774664     -99.960458      1292.0846     -206.39847      563.55693    
Loop time of 0.749712 on 2 procs for 10000 steps with 32 atoms

Performance: 1152.442 ns/day, 0.021 hours/ns, 13338.450 timesteps/s
97.4% CPU use with 2 MPI tasks x 1 OpenMP threads

MPI task timing breakdown:
Section |  min time  |  avg time  |  max time  |%varavg| %total
---------------------------------------------------------------
Pair    | 0.44818    | 0.48383    | 0.51949    |   5.1 | 64.54
Neigh   | 0.0041073  | 0.0048378  | 0.0055684  |   1.1 |  0.65
Comm    | 0.093966   | 0.13038    | 0.1668     |  10.1 | 17.39
Output  | 6.5013e-05 | 0.00010068 | 0.00013635 |   0.0 |  0.01
Modify  | 0.12124    | 0.12218    | 0.12311    |   0.3 | 16.30
Other   |            | 0.008378   |            |       |  1.12

Nlocal:             16 ave          17 max          15 min
Histogram: 1 0 0 0 0 0 0 0 0 1
Nghost:          858.5 ave         870 max         847 min
Histogram: 1 0 0 0 0 0 0 0 0 1
Neighs:         1156.5 ave        1362 max         951 min
Histogram: 1 0 0 0 0 0 0 0 0 1

Total # of neighbors = 2313
Ave neighs/atom = 72.28125
Neighbor list builds = 114
Dangerous builds = 0
unfix 2
# unfix 3

# NPT Production run at temperature
reset_timestep 0
variable prrunl equal 1E4
fix 3 all ave/time 1 10000 10000 c_mytemp c_mypress v_vmyvol v_avgEtotal
fix 4 all ave/time 1 10 10 c_mytemp c_mypress v_vmyvol v_avgEtotal file ${rampup_pravgfile}
fix 4 all ave/time 1 10 10 c_mytemp c_mypress v_vmyvol v_avgEtotal file rampup_pravg_1025.txt
# print to file average of every 10 steps. Every 10 femptoseconds

thermo 1000 # Print every "thermo" timesteps
run ${prrunl}
run 10000
Per MPI rank memory allocation (min/avg/max) = 3.605 | 3.605 | 3.605 Mbytes
   Step          Time           Temp          PotEng         KinEng         TotEng        c_mytemp      c_mypress        Volume    
         0   0              1292.0846     -105.13792      5.1774664     -99.960458      1292.0846     -206.39847      563.55693    
      1000   1              1046.1973     -104.13708      4.19218       -99.9449        1046.1973     -631.64025      569.07906    
      2000   2              1009.5176     -104.08373      4.0452021     -100.03853      1009.5176      2313.0897      567.86538    
      3000   3              980.51918     -103.57599      3.9290036     -99.646991      980.51918      3649.8256      570.9122     
      4000   4              1053.5975     -104.34486      4.221833      -100.12303      1053.5975     -2565.6531      569.56796    
      5000   5              1106.7592     -104.21347      4.4348555     -99.778616      1106.7592     -1699.8827      570.51878    
      6000   6              888.40559     -103.33926      3.5598985     -99.779363      888.40559     -2416.7657      574.63449    
      7000   7              1008.5557     -103.96327      4.0413477     -99.921926      1008.5557     -7615.5892      573.71031    
      8000   8              1004.5493     -103.82093      4.025294      -99.79564       1004.5493      3592.6567      571.28645    
      9000   9              1060.7971     -104.1793       4.2506826     -99.928615      1060.7971     -8228.9268      573.36955    
     10000   10             1240.1218     -104.902        4.9692481     -99.932751      1240.1218      1265.2083      563.59116    
Loop time of 0.810561 on 2 procs for 10000 steps with 32 atoms

Performance: 1065.928 ns/day, 0.023 hours/ns, 12337.131 timesteps/s
98.3% CPU use with 2 MPI tasks x 1 OpenMP threads

MPI task timing breakdown:
Section |  min time  |  avg time  |  max time  |%varavg| %total
---------------------------------------------------------------
Pair    | 0.44772    | 0.48698    | 0.52624    |   5.6 | 60.08
Neigh   | 0.0040873  | 0.0048179  | 0.0055486  |   1.1 |  0.59
Comm    | 0.093734   | 0.13359    | 0.17344    |  10.9 | 16.48
Output  | 6.4582e-05 | 0.0001157  | 0.00016683 |   0.0 |  0.01
Modify  | 0.17672    | 0.17692    | 0.17713    |   0.0 | 21.83
Other   |            | 0.008138   |            |       |  1.00

Nlocal:             16 ave          17 max          15 min
Histogram: 1 0 0 0 0 0 0 0 0 1
Nghost:            881 ave         889 max         873 min
Histogram: 1 0 0 0 0 0 0 0 0 1
Neighs:           1147 ave        1475 max         819 min
Histogram: 1 0 0 0 0 0 0 0 0 1

Total # of neighbors = 2294
Ave neighs/atom = 71.6875
Neighbor list builds = 114
Dangerous builds = 0
variable final_temp_avg equal f_3[1]
variable final_press_avg equal f_3[2]
variable final_vol_avg equal f_3[3]
variable final_etot_avg equal f_3[4]

print "${final_temp_avg} ${final_press_avg} ${final_vol_avg} ${final_etot_avg}" append ${prallfile}
print "${final_temp_avg} ${final_press_avg} ${final_vol_avg} ${final_etot_avg}" append prall.txt
1022.68631242094 -168.588209991818 570.403180360454 -3.12078403958599

unfix 3
unfix 4
#unfix 1
next i
jump Ramp.txt.in LoopStart
variable i loop ${LoopSize}
variable i loop 21
print " "
 
print "*******LOOP # $i*********"
*******LOOP # 7*********
print " "
 
variable tempvar equal ${TempStep}*${i}+${TempInitial}-${TempStep}
variable tempvar equal 25*${i}+${TempInitial}-${TempStep}
variable tempvar equal 25*7+${TempInitial}-${TempStep}
variable tempvar equal 25*7+900-${TempStep}
variable tempvar equal 25*7+900-25
variable rampup_eqavgfile string rampup_eqavg_${tempvar}.txt
variable rampup_eqavgfile string rampup_eqavg_1050.txt
variable rampup_pravgfile string rampup_pravg_${tempvar}.txt
variable rampup_pravgfile string rampup_pravg_1050.txt
# variable rampup_eqfile string rampup_eq_${tempvar}.txt

# NPT Equilibration run at temperature
reset_timestep 0
variable eqrunl equal 1E4 # Keep > 10000 to avoid crashing fix lines below for time avg output
fix 1 all npt temp ${tempvar} ${tempvar} 0.1 iso 1 1 1 drag 1 # npt ensemble molecular dynamics.
fix 1 all npt temp 1050 ${tempvar} 0.1 iso 1 1 1 drag 1 
fix 1 all npt temp 1050 1050 0.1 iso 1 1 1 drag 1 

fix 2 all ave/time 1 10 10 c_mytemp c_mypress v_vmyvol v_avgEtotal file ${rampup_eqavgfile}
fix 2 all ave/time 1 10 10 c_mytemp c_mypress v_vmyvol v_avgEtotal file rampup_eqavg_1050.txt
# print to file average of every 10 steps. Every 10 femptoseconds


# fix 3 all ave/time 1 10000 10000 c_mytemp c_mypress v_vmyvol v_avgEtotal file ${rampup_eqfile}
thermo 1000 # Print every "thermo" timesteps
run ${eqrunl}
run 10000
Per MPI rank memory allocation (min/avg/max) = 3.605 | 3.605 | 3.605 Mbytes
   Step          Time           Temp          PotEng         KinEng         TotEng        c_mytemp      c_mypress        Volume    
         0   0              1240.1218     -104.902        4.9692481     -99.932751      1240.1218      1265.2083      563.59116    
      1000   1              932.05774     -103.52318      3.7348155     -99.78836       932.05774     -389.27763      572.83524    
      2000   2              800.55104     -103.10526      3.2078597     -99.897401      800.55104      11651.922      565.25892    
      3000   3              966.51865     -103.75202      3.8729026     -99.879114      966.51865     -422.42093      571.00873    
      4000   4              1220.5637     -104.47378      4.8908775     -99.582901      1220.5637     -5957.4705      572.25479    
      5000   5              1101.8301     -103.82201      4.4151044     -99.406909      1101.8301      1416.3649      570.57599    
      6000   6              1090.5777     -103.7811       4.3700152     -99.411084      1090.5777      2700.0706      571.30855    
      7000   7              1075.3893     -103.82824      4.3091543     -99.519081      1075.3893     -7351.9512      575.93389    
      8000   8              1124.9079     -104.16982      4.5075783     -99.66224       1124.9079     -2807.5449      571.18607    
      9000   9              1047.0115     -103.85745      4.1954427     -99.662006      1047.0115      5920.2978      565.78682    
     10000   10             986.67788     -103.63773      3.9536819     -99.684045      986.67788      1606.7886      571.64223    
Loop time of 0.745261 on 2 procs for 10000 steps with 32 atoms

Performance: 1159.325 ns/day, 0.021 hours/ns, 13418.110 timesteps/s
97.8% CPU use with 2 MPI tasks x 1 OpenMP threads

MPI task timing breakdown:
Section |  min time  |  avg time  |  max time  |%varavg| %total
---------------------------------------------------------------
Pair    | 0.44572    | 0.48279    | 0.51987    |   5.3 | 64.78
Neigh   | 0.0043061  | 0.005093   | 0.0058799  |   1.1 |  0.68
Comm    | 0.092541   | 0.13027    | 0.168      |  10.5 | 17.48
Output  | 0.00013455 | 0.00041666 | 0.00069878 |   0.0 |  0.06
Modify  | 0.11869    | 0.1187     | 0.11871    |   0.0 | 15.93
Other   |            | 0.007985   |            |       |  1.07

Nlocal:             16 ave          16 max          16 min
Histogram: 2 0 0 0 0 0 0 0 0 0
Nghost:          822.5 ave         824 max         821 min
Histogram: 1 0 0 0 0 0 0 0 0 1
Neighs:         1160.5 ave        1350 max         971 min
Histogram: 1 0 0 0 0 0 0 0 0 1

Total # of neighbors = 2321
Ave neighs/atom = 72.53125
Neighbor list builds = 121
Dangerous builds = 0
unfix 2
# unfix 3

# NPT Production run at temperature
reset_timestep 0
variable prrunl equal 1E4
fix 3 all ave/time 1 10000 10000 c_mytemp c_mypress v_vmyvol v_avgEtotal
fix 4 all ave/time 1 10 10 c_mytemp c_mypress v_vmyvol v_avgEtotal file ${rampup_pravgfile}
fix 4 all ave/time 1 10 10 c_mytemp c_mypress v_vmyvol v_avgEtotal file rampup_pravg_1050.txt
# print to file average of every 10 steps. Every 10 femptoseconds

thermo 1000 # Print every "thermo" timesteps
run ${prrunl}
run 10000
Per MPI rank memory allocation (min/avg/max) = 3.605 | 3.605 | 3.605 Mbytes
   Step          Time           Temp          PotEng         KinEng         TotEng        c_mytemp      c_mypress        Volume    
         0   0              986.67788     -103.63773      3.9536819     -99.684045      986.67788      1606.7886      571.64223    
      1000   1              1166.7361     -104.38879      4.6751867     -99.713607      1166.7361      2563.5447      567.60175    
      2000   2              1108.5409     -104.18894      4.4419949     -99.746945      1108.5409      7942.5947      563.39223    
      3000   3              1165.6362     -104.15846      4.6707792     -99.487678      1165.6362     -10835.001      576.95469    
      4000   4              978.5173      -103.57817      3.9209819     -99.657187      978.5173       5374.5231      569.87623    
      5000   5              989.98475     -103.35392      3.9669327     -99.386988      989.98475      2966.1749      569.94202    
      6000   6              984.98244     -103.64931      3.9468882     -99.702417      984.98244      8714.5864      564.34133    
      7000   7              1023.7472     -103.88575      4.102221      -99.783527      1023.7472      1148.2171      570.27922    
      8000   8              1071.6636     -103.64793      4.2942253     -99.353705      1071.6636      2714.4169      570.43673    
      9000   9              1159.203      -104.31104      4.6450012     -99.66604       1159.203       893.3905       567.84438    
     10000   10             961.10096     -103.5564       3.8511935     -99.705207      961.10096     -2913.632       575.13101    
Loop time of 0.814034 on 2 procs for 10000 steps with 32 atoms

Performance: 1061.381 ns/day, 0.023 hours/ns, 12284.504 timesteps/s
97.6% CPU use with 2 MPI tasks x 1 OpenMP threads

MPI task timing breakdown:
Section |  min time  |  avg time  |  max time  |%varavg| %total
---------------------------------------------------------------
Pair    | 0.45178    | 0.48396    | 0.51613    |   4.6 | 59.45
Neigh   | 0.0046009  | 0.0053561  | 0.0061114  |   1.0 |  0.66
Comm    | 0.094254   | 0.12718    | 0.16011    |   9.2 | 15.62
Output  | 6.2777e-05 | 0.00010782 | 0.00015287 |   0.0 |  0.01
Modify  | 0.18898    | 0.18932    | 0.18966    |   0.1 | 23.26
Other   |            | 0.008111   |            |       |  1.00

Nlocal:             16 ave          16 max          16 min
Histogram: 2 0 0 0 0 0 0 0 0 0
Nghost:          828.5 ave         830 max         827 min
Histogram: 1 0 0 0 0 0 0 0 0 1
Neighs:           1167 ave        1383 max         951 min
Histogram: 1 0 0 0 0 0 0 0 0 1

Total # of neighbors = 2334
Ave neighs/atom = 72.9375
Neighbor list builds = 127
Dangerous builds = 0
variable final_temp_avg equal f_3[1]
variable final_press_avg equal f_3[2]
variable final_vol_avg equal f_3[3]
variable final_etot_avg equal f_3[4]

print "${final_temp_avg} ${final_press_avg} ${final_vol_avg} ${final_etot_avg}" append ${prallfile}
print "${final_temp_avg} ${final_press_avg} ${final_vol_avg} ${final_etot_avg}" append prall.txt
1048.17456177603 -166.935208855454 571.436698503201 -3.11352357410866

unfix 3
unfix 4
#unfix 1
next i
jump Ramp.txt.in LoopStart
variable i loop ${LoopSize}
variable i loop 21
print " "
 
print "*******LOOP # $i*********"
*******LOOP # 8*********
print " "
 
variable tempvar equal ${TempStep}*${i}+${TempInitial}-${TempStep}
variable tempvar equal 25*${i}+${TempInitial}-${TempStep}
variable tempvar equal 25*8+${TempInitial}-${TempStep}
variable tempvar equal 25*8+900-${TempStep}
variable tempvar equal 25*8+900-25
variable rampup_eqavgfile string rampup_eqavg_${tempvar}.txt
variable rampup_eqavgfile string rampup_eqavg_1075.txt
variable rampup_pravgfile string rampup_pravg_${tempvar}.txt
variable rampup_pravgfile string rampup_pravg_1075.txt
# variable rampup_eqfile string rampup_eq_${tempvar}.txt

# NPT Equilibration run at temperature
reset_timestep 0
variable eqrunl equal 1E4 # Keep > 10000 to avoid crashing fix lines below for time avg output
fix 1 all npt temp ${tempvar} ${tempvar} 0.1 iso 1 1 1 drag 1 # npt ensemble molecular dynamics.
fix 1 all npt temp 1075 ${tempvar} 0.1 iso 1 1 1 drag 1 
fix 1 all npt temp 1075 1075 0.1 iso 1 1 1 drag 1 

fix 2 all ave/time 1 10 10 c_mytemp c_mypress v_vmyvol v_avgEtotal file ${rampup_eqavgfile}
fix 2 all ave/time 1 10 10 c_mytemp c_mypress v_vmyvol v_avgEtotal file rampup_eqavg_1075.txt
# print to file average of every 10 steps. Every 10 femptoseconds


# fix 3 all ave/time 1 10000 10000 c_mytemp c_mypress v_vmyvol v_avgEtotal file ${rampup_eqfile}
thermo 1000 # Print every "thermo" timesteps
run ${eqrunl}
run 10000
Per MPI rank memory allocation (min/avg/max) = 3.605 | 3.605 | 3.605 Mbytes
   Step          Time           Temp          PotEng         KinEng         TotEng        c_mytemp      c_mypress        Volume    
         0   0              961.10096     -103.5564       3.8511935     -99.705207      961.10096     -2913.632       575.13101    
      1000   1              1046.5917     -103.49344      4.1937604     -99.299677      1046.5917     -1808.7728      576.38089    
      2000   2              1155.3968     -104.14272      4.6297493     -99.512973      1155.3968     -1841.1389      572.30351    
      3000   3              1008.9536     -103.4476       4.0429423     -99.404659      1008.9536     -545.5702       574.0574     
      4000   4              1220.3014     -104.31582      4.8898263     -99.425995      1220.3014     -4774.2903      572.77829    
      5000   5              1138.7125     -104.06561      4.5628944     -99.502716      1138.7125      702.23562      568.2062     
      6000   6              979.07376     -103.29625      3.9232117     -99.373039      979.07376     -8563.177       578.7048     
      7000   7              1029.5884     -103.74754      4.1256272     -99.621911      1029.5884      6647.9781      564.91407    
      8000   8              970.81123     -103.37763      3.8901032     -99.487532      970.81123      3411.3775      571.5207     
      9000   9              1085.071      -103.71445      4.3479493     -99.366501      1085.071      -58.779281      573.85047    
     10000   10             1120.0882     -103.7453       4.4882657     -99.257039      1120.0882     -1832.7177      576.77713    
Loop time of 0.757564 on 2 procs for 10000 steps with 32 atoms

Performance: 1140.498 ns/day, 0.021 hours/ns, 13200.209 timesteps/s
97.2% CPU use with 2 MPI tasks x 1 OpenMP threads

MPI task timing breakdown:
Section |  min time  |  avg time  |  max time  |%varavg| %total
---------------------------------------------------------------
Pair    | 0.44493    | 0.48183    | 0.51872    |   5.3 | 63.60
Neigh   | 0.0040794  | 0.0047898  | 0.0055002  |   1.0 |  0.63
Comm    | 0.091273   | 0.12874    | 0.16621    |  10.4 | 16.99
Output  | 6.419e-05  | 9.9272e-05 | 0.00013435 |   0.0 |  0.01
Modify  | 0.13368    | 0.13404    | 0.13439    |   0.1 | 17.69
Other   |            | 0.008072   |            |       |  1.07

Nlocal:             16 ave          17 max          15 min
Histogram: 1 0 0 0 0 0 0 0 0 1
Nghost:            827 ave         832 max         822 min
Histogram: 1 0 0 0 0 0 0 0 0 1
Neighs:           1161 ave        1392 max         930 min
Histogram: 1 0 0 0 0 0 0 0 0 1

Total # of neighbors = 2322
Ave neighs/atom = 72.5625
Neighbor list builds = 114
Dangerous builds = 0
unfix 2
# unfix 3

# NPT Production run at temperature
reset_timestep 0
variable prrunl equal 1E4
fix 3 all ave/time 1 10000 10000 c_mytemp c_mypress v_vmyvol v_avgEtotal
fix 4 all ave/time 1 10 10 c_mytemp c_mypress v_vmyvol v_avgEtotal file ${rampup_pravgfile}
fix 4 all ave/time 1 10 10 c_mytemp c_mypress v_vmyvol v_avgEtotal file rampup_pravg_1075.txt
# print to file average of every 10 steps. Every 10 femptoseconds

thermo 1000 # Print every "thermo" timesteps
run ${prrunl}
run 10000
Per MPI rank memory allocation (min/avg/max) = 3.605 | 3.605 | 3.605 Mbytes
   Step          Time           Temp          PotEng         KinEng         TotEng        c_mytemp      c_mypress        Volume    
         0   0              1120.0882     -103.7453       4.4882657     -99.257039      1120.0882     -1832.7177      576.77713    
      1000   1              1106.8944     -103.93166      4.4353974     -99.496264      1106.8944      6719.3966      568.01022    
      2000   2              921.90493     -103.39865      3.6941325     -99.704513      921.90493      1205.6164      571.60432    
      3000   3              1091.2143     -103.73588      4.3725662     -99.363313      1091.2143     -2234.2802      574.47788    
      4000   4              1282.7525     -104.14042      5.140072      -99.000352      1282.7525     -11181.628      581.25178    
      5000   5              1236.9293     -104.41819      4.9564555     -99.461739      1236.9293     -803.8806       567.58959    
      6000   6              831.71056     -102.70995      3.3327178     -99.377232      831.71056      1417.5429      573.83747    
      7000   7              1341.2833     -104.4011       5.3746086     -99.026493      1341.2833     -8109.26        573.59451    
      8000   8              1057.5234     -103.56571      4.2375645     -99.328149      1057.5234     -4204.1874      576.97994    
      9000   9              980.13725     -103.29561      3.9274732     -99.368133      980.13725     -902.14869      573.6034     
     10000   10             1044.6273     -103.43607      4.185889      -99.250186      1044.6273     -1574.7298      574.83722    
Loop time of 0.823218 on 2 procs for 10000 steps with 32 atoms

Performance: 1049.540 ns/day, 0.023 hours/ns, 12147.450 timesteps/s
96.7% CPU use with 2 MPI tasks x 1 OpenMP threads

MPI task timing breakdown:
Section |  min time  |  avg time  |  max time  |%varavg| %total
---------------------------------------------------------------
Pair    | 0.44886    | 0.48363    | 0.5184     |   5.0 | 58.75
Neigh   | 0.004524   | 0.0052995  | 0.006075   |   1.1 |  0.64
Comm    | 0.091761   | 0.12722    | 0.16268    |   9.9 | 15.45
Output  | 0.00013639 | 0.00034903 | 0.00056167 |   0.0 |  0.04
Modify  | 0.19858    | 0.19861    | 0.19864    |   0.0 | 24.13
Other   |            | 0.00811    |            |       |  0.99

Nlocal:             16 ave          18 max          14 min
Histogram: 1 0 0 0 0 0 0 0 0 1
Nghost:          807.5 ave         813 max         802 min
Histogram: 1 0 0 0 0 0 0 0 0 1
Neighs:           1150 ave        1528 max         772 min
Histogram: 1 0 0 0 0 0 0 0 0 1

Total # of neighbors = 2300
Ave neighs/atom = 71.875
Neighbor list builds = 126
Dangerous builds = 0
variable final_temp_avg equal f_3[1]
variable final_press_avg equal f_3[2]
variable final_vol_avg equal f_3[3]
variable final_etot_avg equal f_3[4]

print "${final_temp_avg} ${final_press_avg} ${final_vol_avg} ${final_etot_avg}" append ${prallfile}
print "${final_temp_avg} ${final_press_avg} ${final_vol_avg} ${final_etot_avg}" append prall.txt
1073.57381619964 -269.821541520649 572.855100748662 -3.10423193000846

unfix 3
unfix 4
#unfix 1
next i
jump Ramp.txt.in LoopStart
variable i loop ${LoopSize}
variable i loop 21
print " "
 
print "*******LOOP # $i*********"
*******LOOP # 9*********
print " "
 
variable tempvar equal ${TempStep}*${i}+${TempInitial}-${TempStep}
variable tempvar equal 25*${i}+${TempInitial}-${TempStep}
variable tempvar equal 25*9+${TempInitial}-${TempStep}
variable tempvar equal 25*9+900-${TempStep}
variable tempvar equal 25*9+900-25
variable rampup_eqavgfile string rampup_eqavg_${tempvar}.txt
variable rampup_eqavgfile string rampup_eqavg_1100.txt
variable rampup_pravgfile string rampup_pravg_${tempvar}.txt
variable rampup_pravgfile string rampup_pravg_1100.txt
# variable rampup_eqfile string rampup_eq_${tempvar}.txt

# NPT Equilibration run at temperature
reset_timestep 0
variable eqrunl equal 1E4 # Keep > 10000 to avoid crashing fix lines below for time avg output
fix 1 all npt temp ${tempvar} ${tempvar} 0.1 iso 1 1 1 drag 1 # npt ensemble molecular dynamics.
fix 1 all npt temp 1100 ${tempvar} 0.1 iso 1 1 1 drag 1 
fix 1 all npt temp 1100 1100 0.1 iso 1 1 1 drag 1 

fix 2 all ave/time 1 10 10 c_mytemp c_mypress v_vmyvol v_avgEtotal file ${rampup_eqavgfile}
fix 2 all ave/time 1 10 10 c_mytemp c_mypress v_vmyvol v_avgEtotal file rampup_eqavg_1100.txt
# print to file average of every 10 steps. Every 10 femptoseconds


# fix 3 all ave/time 1 10000 10000 c_mytemp c_mypress v_vmyvol v_avgEtotal file ${rampup_eqfile}
thermo 1000 # Print every "thermo" timesteps
run ${eqrunl}
run 10000
Per MPI rank memory allocation (min/avg/max) = 3.605 | 3.605 | 3.605 Mbytes
   Step          Time           Temp          PotEng         KinEng         TotEng        c_mytemp      c_mypress        Volume    
         0   0              1044.6273     -103.43607      4.185889      -99.250186      1044.6273     -1574.7298      574.83722    
      1000   1              1226.4042     -103.98864      4.9142808     -99.074358      1226.4042      3000.7233      568.9549     
      2000   2              1258.0122     -104.04722      5.0409361     -99.006282      1258.0122     -3559.7563      572.9502     
      3000   3              1020.0511     -103.0362       4.0874107     -98.948786      1020.0511      3550.9117      575.41647    
      4000   4              1021.166      -103.31689      4.091878      -99.225013      1021.166       1780.6446      573.24032    
      5000   5              1062.8725     -103.17997      4.2589986     -98.920973      1062.8725      1563.7312      576.54021    
      6000   6              966.35237     -103.02168      3.8722363     -99.149446      966.35237      10309.072      571.09691    
      7000   7              1314.757      -104.48829      5.2683162     -99.219972      1314.757       2563.5487      568.16683    
      8000   8              1069.93       -103.4503       4.2872785     -99.163021      1069.93       -5593.1204      578.89929    
      9000   9              857.12382     -102.53205      3.4345504     -99.097496      857.12382      7304.7763      570.48753    
     10000   10             1075.4459     -103.73251      4.309381      -99.423132      1075.4459     -2292.1685      570.5868     
Loop time of 0.742314 on 2 procs for 10000 steps with 32 atoms

Performance: 1163.929 ns/day, 0.021 hours/ns, 13471.396 timesteps/s
98.0% CPU use with 2 MPI tasks x 1 OpenMP threads

MPI task timing breakdown:
Section |  min time  |  avg time  |  max time  |%varavg| %total
---------------------------------------------------------------
Pair    | 0.44776    | 0.48184    | 0.51591    |   4.9 | 64.91
Neigh   | 0.0046266  | 0.0054076  | 0.0061885  |   1.1 |  0.73
Comm    | 0.092746   | 0.12749    | 0.16224    |   9.7 | 17.18
Output  | 0.00013931 | 0.00040361 | 0.00066791 |   0.0 |  0.05
Modify  | 0.11893    | 0.11912    | 0.11932    |   0.1 | 16.05
Other   |            | 0.008049   |            |       |  1.08

Nlocal:             16 ave          17 max          15 min
Histogram: 1 0 0 0 0 0 0 0 0 1
Nghost:          856.5 ave         862 max         851 min
Histogram: 1 0 0 0 0 0 0 0 0 1
Neighs:           1158 ave        1452 max         864 min
Histogram: 1 0 0 0 0 0 0 0 0 1

Total # of neighbors = 2316
Ave neighs/atom = 72.375
Neighbor list builds = 129
Dangerous builds = 0
unfix 2
# unfix 3

# NPT Production run at temperature
reset_timestep 0
variable prrunl equal 1E4
fix 3 all ave/time 1 10000 10000 c_mytemp c_mypress v_vmyvol v_avgEtotal
fix 4 all ave/time 1 10 10 c_mytemp c_mypress v_vmyvol v_avgEtotal file ${rampup_pravgfile}
fix 4 all ave/time 1 10 10 c_mytemp c_mypress v_vmyvol v_avgEtotal file rampup_pravg_1100.txt
# print to file average of every 10 steps. Every 10 femptoseconds

thermo 1000 # Print every "thermo" timesteps
run ${prrunl}
run 10000
Per MPI rank memory allocation (min/avg/max) = 3.605 | 3.605 | 3.605 Mbytes
   Step          Time           Temp          PotEng         KinEng         TotEng        c_mytemp      c_mypress        Volume    
         0   0              1075.4459     -103.73251      4.309381      -99.423132      1075.4459     -2292.1685      570.5868     
      1000   1              1013.0988     -103.24929      4.0595522     -99.189737      1013.0988      13840.979      565.54076    
      2000   2              1102.6647     -103.3471       4.4184487     -98.928647      1102.6647      67.60803       575.86086    
      3000   3              1072.4553     -103.4158       4.2973977     -99.118407      1072.4553     -8449.5113      580.2046     
      4000   4              1076.4812     -102.92968      4.3135298     -98.616152      1076.4812      4707.9073      574.52945    
      5000   5              1050.5456     -103.34346      4.2096038     -99.133857      1050.5456     -4199.2076      578.05343    
      6000   6              985.03557     -103.17364      3.9471011     -99.226538      985.03557      416.56931      574.08129    
      7000   7              1148.5324     -103.52263      4.6022433     -98.920386      1148.5324     -152.46855      571.11374    
      8000   8              1171.9896     -103.74785      4.6962379     -99.051616      1171.9896     -407.08238      576.81844    
      9000   9              1141.0686     -103.66368      4.5723354     -99.091344      1141.0686     -1955.0645      575.07317    
     10000   10             1056.5078     -103.07169      4.2334949     -98.838191      1056.5078      8492.828       572.08552    
Loop time of 0.800652 on 2 procs for 10000 steps with 32 atoms

Performance: 1079.120 ns/day, 0.022 hours/ns, 12489.821 timesteps/s
98.1% CPU use with 2 MPI tasks x 1 OpenMP threads

MPI task timing breakdown:
Section |  min time  |  avg time  |  max time  |%varavg| %total
---------------------------------------------------------------
Pair    | 0.44778    | 0.48236    | 0.51695    |   5.0 | 60.25
Neigh   | 0.0048866  | 0.0057325  | 0.0065785  |   1.1 |  0.72
Comm    | 0.09304    | 0.12835    | 0.16365    |   9.9 | 16.03
Output  | 7.0775e-05 | 0.0001067  | 0.00014263 |   0.0 |  0.01
Modify  | 0.17593    | 0.17603    | 0.17613    |   0.0 | 21.99
Other   |            | 0.00807    |            |       |  1.01

Nlocal:             16 ave          17 max          15 min
Histogram: 1 0 0 0 0 0 0 0 0 1
Nghost:            851 ave         868 max         834 min
Histogram: 1 0 0 0 0 0 0 0 0 1
Neighs:           1160 ave        1201 max        1119 min
Histogram: 1 0 0 0 0 0 0 0 0 1

Total # of neighbors = 2320
Ave neighs/atom = 72.5
Neighbor list builds = 137
Dangerous builds = 0
variable final_temp_avg equal f_3[1]
variable final_press_avg equal f_3[2]
variable final_vol_avg equal f_3[3]
variable final_etot_avg equal f_3[4]

print "${final_temp_avg} ${final_press_avg} ${final_vol_avg} ${final_etot_avg}" append ${prallfile}
print "${final_temp_avg} ${final_press_avg} ${final_vol_avg} ${final_etot_avg}" append prall.txt
1097.24221123615 -265.447301810897 574.957972056582 -3.09488192490601

unfix 3
unfix 4
#unfix 1
next i
jump Ramp.txt.in LoopStart
variable i loop ${LoopSize}
variable i loop 21
print " "
 
print "*******LOOP # $i*********"
*******LOOP # 10*********
print " "
 
variable tempvar equal ${TempStep}*${i}+${TempInitial}-${TempStep}
variable tempvar equal 25*${i}+${TempInitial}-${TempStep}
variable tempvar equal 25*10+${TempInitial}-${TempStep}
variable tempvar equal 25*10+900-${TempStep}
variable tempvar equal 25*10+900-25
variable rampup_eqavgfile string rampup_eqavg_${tempvar}.txt
variable rampup_eqavgfile string rampup_eqavg_1125.txt
variable rampup_pravgfile string rampup_pravg_${tempvar}.txt
variable rampup_pravgfile string rampup_pravg_1125.txt
# variable rampup_eqfile string rampup_eq_${tempvar}.txt

[...]
Output  | 6.2218e-05 | 9.6187e-05 | 0.00013015 |   0.0 |  0.01
Modify  | 0.11695    | 0.11715    | 0.11734    |   0.1 | 16.18
Other   |            | 0.007928   |            |       |  1.10

Nlocal:             16 ave          20 max          12 min
Histogram: 1 0 0 0 0 0 0 0 0 1
Nghost:            758 ave         772 max         744 min
Histogram: 1 0 0 0 0 0 0 0 0 1
Neighs:         1151.5 ave        1219 max        1084 min
Histogram: 1 0 0 0 0 0 0 0 0 1

Total # of neighbors = 2303
Ave neighs/atom = 71.96875
Neighbor list builds = 67
Dangerous builds = 0
unfix 2
# unfix 3

# NPT Production run at temperature
reset_timestep 0
variable prrunl equal 1E4
fix 3 all ave/time 1 10000 10000 c_mytemp c_mypress v_vmyvol v_avgEtotal
fix 4 all ave/time 1 10 10 c_mytemp c_mypress v_vmyvol v_avgEtotal file ${rampdown_pravgfile}
fix 4 all ave/time 1 10 10 c_mytemp c_mypress v_vmyvol v_avgEtotal file rampdown_pravg_950.txt
# print to file average of every 10 steps. Every 10 femptoseconds

thermo 1000 # Print every "thermo" timesteps
run ${prrunl}
run 10000
Per MPI rank memory allocation (min/avg/max) = 3.732 | 3.732 | 3.732 Mbytes
   Step          Time           Temp          PotEng         KinEng         TotEng        c_mytemp      c_mypress        Volume    
         0   0              858.87119     -104.16587      3.4415522     -100.72432      858.87119      4063.3962      565.64573    
      1000   1              943.07383     -104.5226       3.7789577     -100.74364      943.07383     -5373.9434      570.49666    
      2000   2              880.77946     -104.23319      3.5293401     -100.70385      880.77946      6549.7096      563.01426    
      3000   3              888.04805     -104.34542      3.5584658     -100.78695      888.04805      3148.0442      565.81855    
      4000   4              993.45699     -104.83462      3.9808462     -100.85377      993.45699     -1684.7197      564.89787    
      5000   5              751.10503     -103.6269       3.0097263     -100.61717      751.10503      6318.4583      568.89875    
      6000   6              894.30351     -104.45128      3.5835318     -100.86775      894.30351      4916.2445      565.44802    
      7000   7              1029.1895     -104.89441      4.1240285     -100.77038      1029.1895     -3956.3902      567.22283    
      8000   8              843.16159     -104.26453      3.3786029     -100.88593      843.16159      1866.0959      566.67228    
      9000   9              1047.0536     -104.85305      4.1956115     -100.65744      1047.0536      1167.9651      563.37021    
     10000   10             889.53302     -104.15676      3.5644162     -100.59234      889.53302      2692.0624      566.03762    
Loop time of 0.785422 on 2 procs for 10000 steps with 32 atoms

Performance: 1100.045 ns/day, 0.022 hours/ns, 12732.005 timesteps/s
97.7% CPU use with 2 MPI tasks x 1 OpenMP threads

MPI task timing breakdown:
Section |  min time  |  avg time  |  max time  |%varavg| %total
---------------------------------------------------------------
Pair    | 0.4464     | 0.47844    | 0.51049    |   4.6 | 60.92
Neigh   | 0.0020469  | 0.0023897  | 0.0027324  |   0.7 |  0.30
Comm    | 0.087216   | 0.11965    | 0.15208    |   9.4 | 15.23
Output  | 0.00013505 | 0.00032391 | 0.00051277 |   0.0 |  0.04
Modify  | 0.17523    | 0.17605    | 0.17687    |   0.2 | 22.41
Other   |            | 0.008562   |            |       |  1.09

Nlocal:             16 ave          17 max          15 min
Histogram: 1 0 0 0 0 0 0 0 0 1
Nghost:          762.5 ave         768 max         757 min
Histogram: 1 0 0 0 0 0 0 0 0 1
Neighs:         1160.5 ave        1292 max        1029 min
Histogram: 1 0 0 0 0 0 0 0 0 1

Total # of neighbors = 2321
Ave neighs/atom = 72.53125
Neighbor list builds = 62
Dangerous builds = 0
variable final_temp_avg equal f_3[1]
variable final_press_avg equal f_3[2]
variable final_vol_avg equal f_3[3]
variable final_etot_avg equal f_3[4]

print "${final_temp_avg} ${final_press_avg} ${final_vol_avg} ${final_etot_avg}" append ${prallfile}
print "${final_temp_avg} ${final_press_avg} ${final_vol_avg} ${final_etot_avg}" append prall.txt
948.243706390545 -176.917087407302 566.255190894293 -3.14733173628414

unfix 3
unfix 4
#unfix 1

next i
jump Ramp.txt.in LoopStart2
variable i loop ${LoopSize}
variable i loop 21
print " "
 
print "*******LOOP2 # $i*********"
*******LOOP2 # 20*********
print " "
 
variable tempvar equal ${TempFinal}+${TempStep}-${TempStep}*${i}
variable tempvar equal 1400+${TempStep}-${TempStep}*${i}
variable tempvar equal 1400+25-${TempStep}*${i}
variable tempvar equal 1400+25-25*${i}
variable tempvar equal 1400+25-25*20
variable rampdown_eqavgfile string rampdown_eqavg_${tempvar}.txt
variable rampdown_eqavgfile string rampdown_eqavg_925.txt
variable rampdown_pravgfile string rampdown_pravg_${tempvar}.txt
variable rampdown_pravgfile string rampdown_pravg_925.txt
# variable rampup_eqfile string rampup_eq_${tempvar}.txt

# NPT Equilibration run at temperature
reset_timestep 0
variable eqrunl equal 1E4 # Keep > 10000 to avoid crashing fix lines below for time avg output
fix 1 all npt temp ${tempvar} ${tempvar} 0.1 iso 1 1 1 drag 1 # npt ensemble molecular dynamics.
fix 1 all npt temp 925 ${tempvar} 0.1 iso 1 1 1 drag 1 
fix 1 all npt temp 925 925 0.1 iso 1 1 1 drag 1 
fix 2 all ave/time 1 10 10 c_mytemp c_mypress v_vmyvol v_avgEtotal file ${rampdown_eqavgfile}
fix 2 all ave/time 1 10 10 c_mytemp c_mypress v_vmyvol v_avgEtotal file rampdown_eqavg_925.txt
# print to file average of every 10 steps. Every 10 femptoseconds
thermo 1000 # Print every "thermo" timesteps
run ${eqrunl}
run 10000
Per MPI rank memory allocation (min/avg/max) = 3.732 | 3.732 | 3.732 Mbytes
   Step          Time           Temp          PotEng         KinEng         TotEng        c_mytemp      c_mypress        Volume    
         0   0              889.53302     -104.15676      3.5644162     -100.59234      889.53302      2692.0624      566.03762    
      1000   1              991.09083     -104.73615      3.9713649     -100.76478      991.09083     -10063.129      572.99026    
      2000   2              966.54275     -104.6657       3.8729992     -100.7927       966.54275      7500.0382      560.4884     
      3000   3              975.26267     -104.85804      3.9079404     -100.9501       975.26267     -1006.3313      564.84533    
      4000   4              884.84566     -104.52516      3.5456336     -100.97953      884.84566     -2495.4385      564.53138    
      5000   5              870.9838      -104.50786      3.4900883     -101.01777      870.9838      -1793.0645      566.05988    
      6000   6              986.36639     -104.82174      3.9524338     -100.8693       986.36639     -1084.1958      564.29333    
      7000   7              1037.5274     -105.06563      4.1574394     -100.90819      1037.5274     -4853.1863      566.78044    
      8000   8              742.27208     -103.79905      2.9743321     -100.82472      742.27208      3014.9642      566.90805    
      9000   9              793.74046     -104.17519      3.1805692     -100.99462      793.74046      6015.6001      562.70609    
     10000   10             955.97159     -104.96196      3.8306398     -101.13132      955.97159     -2027.6565      564.4174     
Loop time of 0.71943 on 2 procs for 10000 steps with 32 atoms

Performance: 1200.951 ns/day, 0.020 hours/ns, 13899.891 timesteps/s
97.9% CPU use with 2 MPI tasks x 1 OpenMP threads

MPI task timing breakdown:
Section |  min time  |  avg time  |  max time  |%varavg| %total
---------------------------------------------------------------
Pair    | 0.44858    | 0.47465    | 0.50072    |   3.8 | 65.98
Neigh   | 0.0024815  | 0.0029158  | 0.00335    |   0.8 |  0.41
Comm    | 0.089169   | 0.11579    | 0.14241    |   7.8 | 16.09
Output  | 6.1115e-05 | 9.4923e-05 | 0.00012873 |   0.0 |  0.01
Modify  | 0.1178     | 0.11802    | 0.11824    |   0.1 | 16.40
Other   |            | 0.007959   |            |       |  1.11

Nlocal:             16 ave          20 max          12 min
Histogram: 1 0 0 0 0 0 0 0 0 1
Nghost:          762.5 ave         763 max         762 min
Histogram: 1 0 0 0 0 0 0 0 0 1
Neighs:           1160 ave        1244 max        1076 min
Histogram: 1 0 0 0 0 0 0 0 0 1

Total # of neighbors = 2320
Ave neighs/atom = 72.5
Neighbor list builds = 76
Dangerous builds = 0
unfix 2
# unfix 3

# NPT Production run at temperature
reset_timestep 0
variable prrunl equal 1E4
fix 3 all ave/time 1 10000 10000 c_mytemp c_mypress v_vmyvol v_avgEtotal
fix 4 all ave/time 1 10 10 c_mytemp c_mypress v_vmyvol v_avgEtotal file ${rampdown_pravgfile}
fix 4 all ave/time 1 10 10 c_mytemp c_mypress v_vmyvol v_avgEtotal file rampdown_pravg_925.txt
# print to file average of every 10 steps. Every 10 femptoseconds

thermo 1000 # Print every "thermo" timesteps
run ${prrunl}
run 10000
Per MPI rank memory allocation (min/avg/max) = 3.732 | 3.732 | 3.732 Mbytes
   Step          Time           Temp          PotEng         KinEng         TotEng        c_mytemp      c_mypress        Volume    
         0   0              955.97159     -104.96196      3.8306398     -101.13132      955.97159     -2027.6565      564.4174     
      1000   1              1031.6441     -105.16642      4.1338644     -101.03256      1031.6441     -3792.4459      564.30835    
      2000   2              954.9916      -104.709        3.8267129     -100.88228      954.9916      -2651.9728      565.75532    
      3000   3              1088.6787     -105.28764      4.3624059     -100.92523      1088.6787     -8536.8528      568.04381    
      4000   4              931.88345     -104.829        3.7341171     -101.09488      931.88345      332.08308      563.10257    
      5000   5              772.47554     -104.12685      3.0953593     -101.03149      772.47554      10294.2        559.53962    
      6000   6              964.50816     -105.02413      3.8648464     -101.15928      964.50816     -4030.1043      566.36237    
      7000   7              860.74362     -104.29776      3.4490552     -100.84871      860.74362      2612.0952      564.93174    
      8000   8              900.20125     -104.5245       3.6071645     -100.91734      900.20125     -7303.0706      572.52421    
      9000   9              888.84802     -104.49834      3.5616714     -100.93666      888.84802      2066.6983      565.50359    
     10000   10             946.11742     -104.82742      3.7911535     -101.03627      946.11742     -1884.4722      564.01511    
Loop time of 0.785465 on 2 procs for 10000 steps with 32 atoms

Performance: 1099.985 ns/day, 0.022 hours/ns, 12731.311 timesteps/s
98.1% CPU use with 2 MPI tasks x 1 OpenMP threads

MPI task timing breakdown:
Section |  min time  |  avg time  |  max time  |%varavg| %total
---------------------------------------------------------------
Pair    | 0.45033    | 0.47951    | 0.50869    |   4.2 | 61.05
Neigh   | 0.0019474  | 0.0022622  | 0.002577   |   0.7 |  0.29
Comm    | 0.090763   | 0.1204     | 0.15003    |   8.5 | 15.33
Output  | 6.2998e-05 | 9.7422e-05 | 0.00013185 |   0.0 |  0.01
Modify  | 0.17515    | 0.1752     | 0.17525    |   0.0 | 22.31
Other   |            | 0.007998   |            |       |  1.02

Nlocal:             16 ave          18 max          14 min
Histogram: 1 0 0 0 0 0 0 0 0 1
Nghost:          771.5 ave         774 max         769 min
Histogram: 1 0 0 0 0 0 0 0 0 1
Neighs:           1140 ave        1195 max        1085 min
Histogram: 1 0 0 0 0 0 0 0 0 1

Total # of neighbors = 2280
Ave neighs/atom = 71.25
Neighbor list builds = 59
Dangerous builds = 0
variable final_temp_avg equal f_3[1]
variable final_press_avg equal f_3[2]
variable final_vol_avg equal f_3[3]
variable final_etot_avg equal f_3[4]

print "${final_temp_avg} ${final_press_avg} ${final_vol_avg} ${final_etot_avg}" append ${prallfile}
print "${final_temp_avg} ${final_press_avg} ${final_vol_avg} ${final_etot_avg}" append prall.txt
923.470149604782 -193.670545529355 565.019706895072 -3.15513775539321

unfix 3
unfix 4
#unfix 1

next i
jump Ramp.txt.in LoopStart2
variable i loop ${LoopSize}
variable i loop 21
print " "
 
print "*******LOOP2 # $i*********"
*******LOOP2 # 21*********
print " "
 
variable tempvar equal ${TempFinal}+${TempStep}-${TempStep}*${i}
variable tempvar equal 1400+${TempStep}-${TempStep}*${i}
variable tempvar equal 1400+25-${TempStep}*${i}
variable tempvar equal 1400+25-25*${i}
variable tempvar equal 1400+25-25*21
variable rampdown_eqavgfile string rampdown_eqavg_${tempvar}.txt
variable rampdown_eqavgfile string rampdown_eqavg_900.txt
variable rampdown_pravgfile string rampdown_pravg_${tempvar}.txt
variable rampdown_pravgfile string rampdown_pravg_900.txt
# variable rampup_eqfile string rampup_eq_${tempvar}.txt

# NPT Equilibration run at temperature
reset_timestep 0
variable eqrunl equal 1E4 # Keep > 10000 to avoid crashing fix lines below for time avg output
fix 1 all npt temp ${tempvar} ${tempvar} 0.1 iso 1 1 1 drag 1 # npt ensemble molecular dynamics.
fix 1 all npt temp 900 ${tempvar} 0.1 iso 1 1 1 drag 1 
fix 1 all npt temp 900 900 0.1 iso 1 1 1 drag 1 
fix 2 all ave/time 1 10 10 c_mytemp c_mypress v_vmyvol v_avgEtotal file ${rampdown_eqavgfile}
fix 2 all ave/time 1 10 10 c_mytemp c_mypress v_vmyvol v_avgEtotal file rampdown_eqavg_900.txt
# print to file average of every 10 steps. Every 10 femptoseconds
thermo 1000 # Print every "thermo" timesteps
run ${eqrunl}
run 10000
Per MPI rank memory allocation (min/avg/max) = 3.732 | 3.732 | 3.732 Mbytes
   Step          Time           Temp          PotEng         KinEng         TotEng        c_mytemp      c_mypress        Volume    
         0   0              946.11742     -104.82742      3.7911535     -101.03627      946.11742     -1884.4722      564.01511    
      1000   1              800.66378     -104.44095      3.2083114     -101.23263      800.66378      3369.5621      564.12414    
      2000   2              796.52797     -104.52264      3.1917389     -101.3309       796.52797      2570.7678      562.98203    
      3000   3              1056.4771     -105.31374      4.2333717     -101.08037      1056.4771     -3248.7345      561.70599    
      4000   4              795.72258     -104.48058      3.1885117     -101.29207      795.72258     -2360.9089      565.42555    
      5000   5              896.11885     -104.93437      3.590806      -101.34356      896.11885     -2383.7856      564.49994    
      6000   6              756.26198     -104.00695      3.0303905     -100.97656      756.26198      90.40666       568.25775    
      7000   7              920.99742     -104.90329      3.6904961     -101.2128       920.99742     -7388.8589      566.50994    
      8000   8              1097.6875     -105.62282      4.3985048     -101.22432      1097.6875     -5114.0611      563.23917    
      9000   9              973.25007     -105.1452       3.8998758     -101.24533      973.25007      751.14693      561.91097    
     10000   10             877.59249     -104.56703      3.5165697     -101.05046      877.59249     -1936.8597      567.74677    
Loop time of 0.696772 on 2 procs for 10000 steps with 32 atoms

Performance: 1240.004 ns/day, 0.019 hours/ns, 14351.896 timesteps/s
98.3% CPU use with 2 MPI tasks x 1 OpenMP threads

MPI task timing breakdown:
Section |  min time  |  avg time  |  max time  |%varavg| %total
---------------------------------------------------------------
Pair    | 0.45761    | 0.46768    | 0.47775    |   1.5 | 67.12
Neigh   | 0.00095834 | 0.0011128  | 0.0012672  |   0.5 |  0.16
Comm    | 0.09185    | 0.10262    | 0.11339    |   3.4 | 14.73
Output  | 6.2778e-05 | 9.568e-05  | 0.00012858 |   0.0 |  0.01
Modify  | 0.11742    | 0.11749    | 0.11756    |   0.0 | 16.86
Other   |            | 0.007775   |            |       |  1.12

Nlocal:             16 ave          17 max          15 min
Histogram: 1 0 0 0 0 0 0 0 0 1
Nghost:            758 ave         768 max         748 min
Histogram: 1 0 0 0 0 0 0 0 0 1
Neighs:         1171.5 ave        1431 max         912 min
Histogram: 1 0 0 0 0 0 0 0 0 1

Total # of neighbors = 2343
Ave neighs/atom = 73.21875
Neighbor list builds = 29
Dangerous builds = 0
unfix 2
# unfix 3

# NPT Production run at temperature
reset_timestep 0
variable prrunl equal 1E4
fix 3 all ave/time 1 10000 10000 c_mytemp c_mypress v_vmyvol v_avgEtotal
fix 4 all ave/time 1 10 10 c_mytemp c_mypress v_vmyvol v_avgEtotal file ${rampdown_pravgfile}
fix 4 all ave/time 1 10 10 c_mytemp c_mypress v_vmyvol v_avgEtotal file rampdown_pravg_900.txt
# print to file average of every 10 steps. Every 10 femptoseconds

thermo 1000 # Print every "thermo" timesteps
run ${prrunl}
run 10000
Per MPI rank memory allocation (min/avg/max) = 3.732 | 3.732 | 3.732 Mbytes
   Step          Time           Temp          PotEng         KinEng         TotEng        c_mytemp      c_mypress        Volume    
         0   0              877.59249     -104.56703      3.5165697     -101.05046      877.59249     -1936.8597      567.74677    
      1000   1              993.28084     -105.31326      3.9801404     -101.33312      993.28084      1805.6724      559.5974     
      2000   2              746.77236     -104.23688      2.992365      -101.24452      746.77236      6300.0208      562.35315    
      3000   3              975.90905     -105.00021      3.9105305     -101.08968      975.90905     -3485.229       565.57681    
      4000   4              940.50044     -105.07941      3.7686459     -101.31076      940.50044     -5138.2327      565.25458    
      5000   5              860.87063     -104.6281       3.4495641     -101.17854      860.87063      4812.8857      562.2464     
      6000   6              1062.7642     -105.30577      4.2585647     -101.0472       1062.7642     -7454.3242      566.44562    
      7000   7              985.38188     -105.12451      3.9484887     -101.17602      985.38188      873.04639      561.69995    
      8000   8              838.21906     -104.71312      3.3587979     -101.35432      838.21906      5873.9591      559.84603    
      9000   9              750.88225     -104.3398       3.0088336     -101.33096      750.88225      4182.3468      562.38469    
     10000   10             956.7368      -105.09929      3.8337061     -101.26558      956.7368      -3405.9678      563.29382    
Loop time of 0.783956 on 2 procs for 10000 steps with 32 atoms

Performance: 1102.103 ns/day, 0.022 hours/ns, 12755.822 timesteps/s
98.3% CPU use with 2 MPI tasks x 1 OpenMP threads

MPI task timing breakdown:
Section |  min time  |  avg time  |  max time  |%varavg| %total
---------------------------------------------------------------
Pair    | 0.4418     | 0.47873    | 0.51566    |   5.3 | 61.07
Neigh   | 0.0010899  | 0.0012815  | 0.0014731  |   0.5 |  0.16
Comm    | 0.084497   | 0.12145    | 0.1584     |  10.6 | 15.49
Output  | 0.00013043 | 0.00036899 | 0.00060755 |   0.0 |  0.05
Modify  | 0.17419    | 0.17423    | 0.17428    |   0.0 | 22.22
Other   |            | 0.007893   |            |       |  1.01

Nlocal:             16 ave          20 max          12 min
Histogram: 1 0 0 0 0 0 0 0 0 1
Nghost:          762.5 ave         763 max         762 min
Histogram: 1 0 0 0 0 0 0 0 0 1
Neighs:         1150.5 ave        1593 max         708 min
Histogram: 1 0 0 0 0 0 0 0 0 1

Total # of neighbors = 2301
Ave neighs/atom = 71.90625
Neighbor list builds = 33
Dangerous builds = 0
variable final_temp_avg equal f_3[1]
variable final_press_avg equal f_3[2]
variable final_vol_avg equal f_3[3]
variable final_etot_avg equal f_3[4]

print "${final_temp_avg} ${final_press_avg} ${final_vol_avg} ${final_etot_avg}" append ${prallfile}
print "${final_temp_avg} ${final_press_avg} ${final_vol_avg} ${final_etot_avg}" append prall.txt
899.469599908469 -230.961145827534 563.6316455789 -3.16388390720657

unfix 3
unfix 4
#unfix 1

next i
jump Ramp.txt.in LoopStart2
variable i delete
Total wall time: 0:01:01
