
     Program BANDS v.7.3.1 starts on  5Oct2024 at 22:57:57 

     This program is part of the open-source Quantum ESPRESSO suite
     for quantum simulation of materials; please cite
         "P. Giannozzi et al., J. Phys.:Condens. Matter 21 395502 (2009);
         "P. Giannozzi et al., J. Phys.:Condens. Matter 29 465901 (2017);
         "P. Giannozzi et al., J. Chem. Phys. 152 154105 (2020);
          URL http://www.quantum-espresso.org", 
     in publications or presentations arising from this work. More details at
     http://www.quantum-espresso.org/quote

     Parallel version (MPI & OpenMP), running on       2 processor cores
     Number of MPI processes:                 2
     Threads/MPI process:                     1

     MPI processes distributed on     1 nodes
     R & G space division:  proc/nbgrp/npool/nimage =       2
     508820 MiB available memory on the printing compute node when the environment starts


     Reading xml data from directory:

     ./diamond.save/

     IMPORTANT: XC functional enforced from input :
     Exchange-correlation= PBE
                           (   1   4   3   4   0   0   0)
     Any further DFT definition will be discarded
     Please, verify this is what you really want


     Parallelization info
     --------------------
     sticks:   dense  smooth     PW     G-vecs:    dense   smooth      PW
     Min         156     126     42                 1847     1318     264
     Max         157     127     43                 1848     1319     267
     Sum         313     253     85                 3695     2637     531

     Using Slab Decomposition

     Reading collected, re-writing distributed wavefunctions
     high-symmetry point:  0.0000 0.0000 0.0000   x coordinate   0.0000
     high-symmetry point:  0.5000 0.0000 0.5000   x coordinate   0.7071
     high-symmetry point:  0.3750 0.3750 0.7500   x coordinate   1.1748
     high-symmetry point:  0.0000 0.0000 0.0000   x coordinate   2.0934
     high-symmetry point:  0.5000 0.5000 0.5000   x coordinate   2.9594
     high-symmetry point:  0.2500 0.2500 0.2500   x coordinate   3.3924

     Plottable bands (eV) written to file bands.dat.gnu
     Bands written to file bands.dat

 **************************************************************************

                    xk=(   0.00000,   0.00000,   0.00000  )

     point group O_h (m-3m) 
     there are 10 classes
     the character table:

       E     8C3   3C2   6C4   6C2'  i     8S6   3s_h  6S4   6s_d 
A_1g   1.00  1.00  1.00  1.00  1.00  1.00  1.00  1.00  1.00  1.00
A_2g   1.00  1.00  1.00 -1.00 -1.00  1.00  1.00  1.00 -1.00 -1.00
E_g    2.00 -1.00  2.00  0.00  0.00  2.00 -1.00  2.00  0.00  0.00
T_1g   3.00  0.00 -1.00  1.00 -1.00  3.00  0.00 -1.00  1.00 -1.00
T_2g   3.00  0.00 -1.00 -1.00  1.00  3.00  0.00 -1.00 -1.00  1.00
A_1u   1.00  1.00  1.00  1.00  1.00 -1.00 -1.00 -1.00 -1.00 -1.00
A_2u   1.00  1.00  1.00 -1.00 -1.00 -1.00 -1.00 -1.00  1.00  1.00
E_u    2.00 -1.00  2.00  0.00  0.00 -2.00  1.00 -2.00  0.00  0.00
T_1u   3.00  0.00 -1.00  1.00 -1.00 -3.00  0.00  1.00 -1.00  1.00
T_2u   3.00  0.00 -1.00 -1.00  1.00 -3.00  0.00  1.00  1.00 -1.00

     the symmetry operations in each class and the name of the first element:

     E        1
                                                                 
     8C3     17   19   20   18   24   21   22   23
                                                                 
     3C2      2    4    3
                                                                 
     6C4      7    8   15   16   12   11
                                                                 
     6C2'     5    6   14   13   10    9
                                                                 
     i       25
                                                                 
     8S6     41   43   44   42   48   45   46   47
                                                                 
     3s_h    26   28   27
                                                                 
     6S4     31   32   39   40   36   35
                                                                 
     6s_d    29   30   38   37   34   33
                                                                 

     Band symmetry, O_h (m-3m)  point group:

     e(  1 -  1) =     -7.90210  eV     1   --> A_1g G_1   G_1+
     e(  2 -  4) =     13.84835  eV     3   --> T_2g G_25' G_5+
     e(  5 -  7) =     19.40281  eV     3   --> T_1u G_15  G_4-
     e(  8 -  8) =     27.05394  eV     1   --> A_2u G_2'  G_2-

 **************************************************************************

 **************************************************************************

                    xk=(   0.05000,   0.00000,   0.05000  )

     point group C_2v (mm2) 
     there are  4 classes
     the character table:

       E     C2    s_v   s_v' 
A_1    1.00  1.00  1.00  1.00
A_2    1.00  1.00 -1.00 -1.00
B_1    1.00 -1.00  1.00 -1.00
B_2    1.00 -1.00 -1.00  1.00

     the symmetry operations in each class and the name of the first element:

     E        1
                                                                 
     C2       2
                                                                 
     s_v      3
                                                                 
     s_v'     4
                                                                 

     Band symmetry, C_2v (mm2)  point group:

     e(  1 -  1) =     -7.85542  eV     1   --> A_1  D_1  S_1  
     e(  2 -  2) =     13.56473  eV     1   --> B_2  D_4  S_4  
     e(  3 -  3) =     13.64715  eV     1   --> A_1  D_1  S_1  
     e(  4 -  4) =     13.82003  eV     1   --> A_2  D_2  S_2  
     e(  5 -  5) =     19.45066  eV     1   --> B_1  D_3  S_3  
     e(  6 -  6) =     19.55639  eV     1   --> A_1  D_1  S_1  
     e(  7 -  7) =     19.63668  eV     1   --> B_2  D_4  S_4  
     e(  8 -  8) =     27.09900  eV     1   --> B_2  D_4  S_4  

 **************************************************************************

 **************************************************************************

                    xk=(   0.10000,   0.00000,   0.10000  )

     Band symmetry, C_2v (mm2)  point group:

     e(  1 -  1) =     -7.71548  eV     1   --> A_1  D_1  S_1  
     e(  2 -  2) =     12.84179  eV     1   --> B_2  D_4  S_4  
     e(  3 -  3) =     13.10510  eV     1   --> A_1  D_1  S_1  
     e(  4 -  4) =     13.73361  eV     1   --> A_2  D_2  S_2  
     e(  5 -  5) =     19.59394  eV     1   --> B_1  D_3  S_3  
     e(  6 -  6) =     19.96364  eV     1   --> A_1  D_1  S_1  
     e(  7 -  7) =     20.20397  eV     1   --> B_2  D_4  S_4  
     e(  8 -  8) =     27.22318  eV     1   --> B_2  D_4  S_4  

 **************************************************************************

 **************************************************************************

                    xk=(   0.15000,   0.00000,   0.15000  )

     Band symmetry, C_2v (mm2)  point group:

     e(  1 -  1) =     -7.48394  eV     1   --> A_1  D_1  S_1  
     e(  2 -  2) =     11.91689  eV     1   --> B_2  D_4  S_4  
     e(  3 -  3) =     12.34155  eV     1   --> A_1  D_1  S_1  
     e(  4 -  4) =     13.59401  eV     1   --> A_2  D_2  S_2  
     e(  5 -  5) =     19.83189  eV     1   --> B_1  D_3  S_3  
     e(  6 -  6) =     20.52035  eV     1   --> A_1  D_1  S_1  
     e(  7 -  7) =     20.88426  eV     1   --> B_2  D_4  S_4  
     e(  8 -  8) =     27.39121  eV     1   --> B_2  D_4  S_4  

 **************************************************************************

 **************************************************************************

                    xk=(   0.20000,   0.00000,   0.20000  )

     Band symmetry, C_2v (mm2)  point group:

     e(  1 -  1) =     -7.15917  eV     1   --> A_1  D_1  S_1  
     e(  2 -  2) =     10.87175  eV     1   --> B_2  D_4  S_4  
     e(  3 -  3) =     11.45446  eV     1   --> A_1  D_1  S_1  
     e(  4 -  4) =     13.37904  eV     1   --> A_2  D_2  S_2  
     e(  5 -  5) =     20.16404  eV     1   --> B_1  D_3  S_3  
     e(  6 -  6) =     21.20533  eV     1   --> A_1  D_1  S_1  
     e(  7 -  7) =     21.53888  eV     1   --> B_2  D_4  S_4  
     e(  8 -  8) =     27.54481  eV     1   --> B_2  D_4  S_4  

 **************************************************************************

 **************************************************************************

                    xk=(   0.25000,   0.00000,   0.25000  )

     Band symmetry, C_2v (mm2)  point group:

     e(  1 -  1) =     -6.74325  eV     1   --> A_1  D_1  S_1  
     e(  2 -  2) =      9.80881  eV     1   --> B_2  D_4  S_4  
     e(  3 -  3) =     10.52439  eV     1   --> A_1  D_1  S_1  
     e(  4 -  4) =     13.12735  eV     1   --> A_2  D_2  S_2  
     e(  5 -  5) =     20.58645  eV     1   --> B_1  D_3  S_3  
     e(  6 -  6) =     21.94826  eV     1   --> A_1  D_1  S_1  
     e(  7 -  7) =     22.06105  eV     1   --> B_2  D_4  S_4  
     e(  8 -  8) =     27.61748  eV     1   --> B_2  D_4  S_4  

 **************************************************************************

 **************************************************************************

                    xk=(   0.30000,   0.00000,   0.30000  )

     Band symmetry, C_2v (mm2)  point group:

     e(  1 -  1) =     -6.23895  eV     1   --> A_1  D_1  S_1  
     e(  2 -  2) =      8.74111  eV     1   --> B_2  D_4  S_4  
     e(  3 -  3) =      9.56058  eV     1   --> A_1  D_1  S_1  
     e(  4 -  4) =     12.76915  eV     1   --> A_2  D_2  S_2  
     e(  5 -  5) =     21.09722  eV     1   --> B_1  D_3  S_3  
     e(  6 -  6) =     22.38146  eV     1   --> B_2  D_4  S_4  
     e(  7 -  7) =     22.70740  eV     1   --> A_1  D_1  S_1  
     e(  8 -  8) =     27.57974  eV     1   --> B_2  D_4  S_4  

 **************************************************************************

 **************************************************************************

                    xk=(   0.35000,   0.00000,   0.35000  )

     Band symmetry, C_2v (mm2)  point group:

     e(  1 -  1) =     -5.64849  eV     1   --> A_1  D_1  S_1  
     e(  2 -  2) =      7.71041  eV     1   --> B_2  D_4  S_4  
     e(  3 -  3) =      8.61611  eV     1   --> A_1  D_1  S_1  
     e(  4 -  4) =     12.33448  eV     1   --> A_2  D_2  S_2  
     e(  5 -  5) =     21.68250  eV     1   --> B_1  D_3  S_3  
     e(  6 -  6) =     22.48962  eV     1   --> B_2  D_4  S_4  
     e(  7 -  7) =     23.51596  eV     1   --> A_1  D_1  S_1  
     e(  8 -  8) =     27.47102  eV     1   --> B_2  D_4  S_4  

 **************************************************************************

 **************************************************************************

                    xk=(   0.40000,   0.00000,   0.40000  )

     Band symmetry, C_2v (mm2)  point group:

     e(  1 -  1) =     -4.97169  eV     1   --> A_1  D_1  S_1  
     e(  2 -  2) =      6.74124  eV     1   --> B_2  D_4  S_4  
     e(  3 -  3) =      7.71570  eV     1   --> A_1  D_1  S_1  
     e(  4 -  4) =     11.85794  eV     1   --> A_2  D_2  S_2  
     e(  5 -  5) =     22.36132  eV     1   --> B_1  D_3  S_3  
     e(  6 -  6) =     22.38577  eV     1   --> B_2  D_4  S_4  
     e(  7 -  7) =     24.38981  eV     1   --> A_1  D_1  S_1  
     e(  8 -  8) =     27.45900  eV     1   --> B_2  D_4  S_4  

 **************************************************************************

 **************************************************************************

                    xk=(   0.45000,   0.00000,   0.45000  )

     Band symmetry, C_2v (mm2)  point group:

     e(  1 -  1) =     -4.21542  eV     1   --> A_1  D_1  S_1  
     e(  2 -  2) =      5.83359  eV     1   --> B_2  D_4  S_4  
     e(  3 -  3) =      6.86409  eV     1   --> A_1  D_1  S_1  
     e(  4 -  4) =     11.34348  eV     1   --> A_2  D_2  S_2  
     e(  5 -  5) =     22.09137  eV     1   --> B_2  D_4  S_4  
     e(  6 -  6) =     23.10821  eV     1   --> B_1  D_3  S_3  
     e(  7 -  7) =     25.30949  eV     1   --> A_1  D_1  S_1  
     e(  8 -  8) =     27.55820  eV     1   --> B_2  D_4  S_4  

 **************************************************************************

 **************************************************************************

                    xk=(   0.50000,   0.00000,   0.50000  )

     Band symmetry, C_2v (mm2)  point group:

     e(  1 -  1) =     -3.39169  eV     1   --> A_1  D_1  S_1  
     e(  2 -  2) =      4.98829  eV     1   --> B_2  D_4  S_4  
     e(  3 -  3) =      6.07985  eV     1   --> A_1  D_1  S_1  
     e(  4 -  4) =     10.78765  eV     1   --> A_2  D_2  S_2  
     e(  5 -  5) =     21.66181  eV     1   --> B_2  D_4  S_4  
     e(  6 -  6) =     23.91980  eV     1   --> B_1  D_3  S_3  
     e(  7 -  7) =     26.27611  eV     1   --> A_1  D_1  S_1  
     e(  8 -  8) =     27.73822  eV     1   --> B_2  D_4  S_4  

 **************************************************************************

 **************************************************************************

                    xk=(   0.48750,   0.03750,   0.52500  )

     point group C_1 (1)    
     there are  1 classes
     the character table:

       E    
A      1.00

     the symmetry operations in each class and the name of the first element:

     E        1
                                                                 

     Band symmetry, C_1 (1)     point group:

     e(  1 -  1) =     -3.26610  eV     1   --> A              
     e(  2 -  2) =      4.66361  eV     1   --> A              
     e(  3 -  3) =      6.22612  eV     1   --> A              
     e(  4 -  4) =     10.69147  eV     1   --> A              
     e(  5 -  5) =     21.65119  eV     1   --> A              
     e(  6 -  6) =     23.93878  eV     1   --> A              
     e(  7 -  7) =     26.31239  eV     1   --> A              
     e(  8 -  8) =     27.83217  eV     1   --> A              

 **************************************************************************

 **************************************************************************

                    xk=(   0.47500,   0.07500,   0.55000  )

     Band symmetry, C_1 (1)     point group:

     e(  1 -  1) =     -3.10647  eV     1   --> A              
     e(  2 -  2) =      4.12907  eV     1   --> A              
     e(  3 -  3) =      6.60799  eV     1   --> A              
     e(  4 -  4) =     10.54865  eV     1   --> A              
     e(  5 -  5) =     21.73400  eV     1   --> A              
     e(  6 -  6) =     23.77416  eV     1   --> A              
     e(  7 -  7) =     26.24057  eV     1   --> A              
     e(  8 -  8) =     28.01229  eV     1   --> A              

 **************************************************************************

 **************************************************************************

                    xk=(   0.46250,   0.11250,   0.57500  )

     Band symmetry, C_1 (1)     point group:

     e(  1 -  1) =     -2.91381  eV     1   --> A              
     e(  2 -  2) =      3.56554  eV     1   --> A              
     e(  3 -  3) =      7.04668  eV     1   --> A              
     e(  4 -  4) =     10.36010  eV     1   --> A              
     e(  5 -  5) =     21.89622  eV     1   --> A              
     e(  6 -  6) =     23.46374  eV     1   --> A              
     e(  7 -  7) =     26.18094  eV     1   --> A              
     e(  8 -  8) =     28.17237  eV     1   --> A              

 **************************************************************************

 **************************************************************************

                    xk=(   0.45000,   0.15000,   0.60000  )

     Band symmetry, C_1 (1)     point group:

     e(  1 -  1) =     -2.68822  eV     1   --> A              
     e(  2 -  2) =      3.01385  eV     1   --> A              
     e(  3 -  3) =      7.48014  eV     1   --> A              
     e(  4 -  4) =     10.13356  eV     1   --> A              
     e(  5 -  5) =     22.08187  eV     1   --> A              
     e(  6 -  6) =     23.10390  eV     1   --> A              
     e(  7 -  7) =     26.13789  eV     1   --> A              
     e(  8 -  8) =     28.25090  eV     1   --> A              

 **************************************************************************

 **************************************************************************

                    xk=(   0.43750,   0.18750,   0.62500  )

     Band symmetry, C_1 (1)     point group:

     e(  1 -  1) =     -2.43792  eV     1   --> A              
     e(  2 -  2) =      2.49736  eV     1   --> A              
     e(  3 -  3) =      7.88669  eV     1   --> A              
     e(  4 -  4) =      9.91188  eV     1   --> A              
     e(  5 -  5) =     22.09709  eV     1   --> A              
     e(  6 -  6) =     22.95650  eV     1   --> A              
     e(  7 -  7) =     26.11884  eV     1   --> A              
     e(  8 -  8) =     28.31023  eV     1   --> A              

 **************************************************************************

 **************************************************************************

                    xk=(   0.42500,   0.22500,   0.65000  )

     Band symmetry, C_1 (1)     point group:

     e(  1 -  1) =     -2.16524  eV     1   --> A              
     e(  2 -  2) =      2.02431  eV     1   --> A              
     e(  3 -  3) =      8.20598  eV     1   --> A              
     e(  4 -  4) =      9.72001  eV     1   --> A              
     e(  5 -  5) =     21.78784  eV     1   --> A              
     e(  6 -  6) =     23.20194  eV     1   --> A              
     e(  7 -  7) =     26.07017  eV     1   --> A              
     e(  8 -  8) =     28.35454  eV     1   --> A              

 **************************************************************************

 **************************************************************************

                    xk=(   0.41250,   0.26250,   0.67500  )

     Band symmetry, C_1 (1)     point group:

     e(  1 -  1) =     -1.88554  eV     1   --> A              
     e(  2 -  2) =      1.60924  eV     1   --> A              
     e(  3 -  3) =      8.35348  eV     1   --> A              
     e(  4 -  4) =      9.62259  eV     1   --> A              
     e(  5 -  5) =     21.41408  eV     1   --> A              
     e(  6 -  6) =     23.60928  eV     1   --> A              
     e(  7 -  7) =     25.96631  eV     1   --> A              
     e(  8 -  8) =     28.41276  eV     1   --> A              

 **************************************************************************

 **************************************************************************

                    xk=(   0.40000,   0.30000,   0.70000  )

     Band symmetry, C_1 (1)     point group:

     e(  1 -  1) =     -1.62122  eV     1   --> A              
     e(  2 -  2) =      1.27624  eV     1   --> A              
     e(  3 -  3) =      8.30016  eV     1   --> A              
     e(  4 -  4) =      9.66789  eV     1   --> A              
     e(  5 -  5) =     21.10992  eV     1   --> A              
     e(  6 -  6) =     24.06843  eV     1   --> A              
     e(  7 -  7) =     25.80695  eV     1   --> A              
     e(  8 -  8) =     28.52393  eV     1   --> A              

 **************************************************************************

 **************************************************************************

                    xk=(   0.38750,   0.33750,   0.72500  )

     Band symmetry, C_1 (1)     point group:

     e(  1 -  1) =     -1.40870  eV     1   --> A              
     e(  2 -  2) =      1.07179  eV     1   --> A              
     e(  3 -  3) =      8.11105  eV     1   --> A              
     e(  4 -  4) =      9.77212  eV     1   --> A              
     e(  5 -  5) =     20.92541  eV     1   --> A              
     e(  6 -  6) =     24.52544  eV     1   --> A              
     e(  7 -  7) =     25.62284  eV     1   --> A              
     e(  8 -  8) =     28.69040  eV     1   --> A              

 **************************************************************************

 **************************************************************************

                    xk=(   0.37500,   0.37500,   0.75000  )

     point group C_s (m)    
     there are  2 classes
     the character table:

       E     s    
A'     1.00  1.00
A''    1.00 -1.00

     the symmetry operations in each class and the name of the first element:

     E        1
                                                                 
     s        2
                                                                 

     Band symmetry, C_s (m)     point group:

     e(  1 -  1) =     -1.29936  eV     1   --> A'             
     e(  2 -  2) =      1.03509  eV     1   --> A'             
     e(  3 -  3) =      7.85756  eV     1   --> A'             
     e(  4 -  4) =      9.84149  eV     1   --> A''            
     e(  5 -  5) =     20.87853  eV     1   --> A'             
     e(  6 -  6) =     24.75679  eV     1   --> A''            
     e(  7 -  7) =     25.57732  eV     1   --> A'             
     e(  8 -  8) =     28.88490  eV     1   --> A'             

 **************************************************************************

 **************************************************************************

                    xk=(   0.33750,   0.33750,   0.67500  )

     Band symmetry, C_s (m)     point group:

     e(  1 -  1) =     -1.97905  eV     1   --> A'             
     e(  2 -  2) =      1.51983  eV     1   --> A'             
     e(  3 -  3) =      8.67170  eV     1   --> A'             
     e(  4 -  4) =      9.80358  eV     1   --> A''            
     e(  5 -  5) =     20.82589  eV     1   --> A'             
     e(  6 -  6) =     24.66567  eV     1   --> A''            
     e(  7 -  7) =     25.11623  eV     1   --> A'             
     e(  8 -  8) =     28.23242  eV     1   --> A'             

 **************************************************************************

 **************************************************************************

                    xk=(   0.30000,   0.30000,   0.60000  )

     Band symmetry, C_s (m)     point group:

     e(  1 -  1) =     -3.07199  eV     1   --> A'             
     e(  2 -  2) =      2.67182  eV     1   --> A'             
     e(  3 -  3) =      9.50161  eV     1   --> A'             
     e(  4 -  4) =      9.90263  eV     1   --> A''            
     e(  5 -  5) =     20.81654  eV     1   --> A'             
     e(  6 -  6) =     24.44009  eV     1   --> A''            
     e(  7 -  7) =     24.61051  eV     1   --> A'             
     e(  8 -  8) =     27.65031  eV     1   --> A'             

 **************************************************************************

 **************************************************************************

                    xk=(   0.26250,   0.26250,   0.52500  )

     Band symmetry, C_s (m)     point group:

     e(  1 -  1) =     -4.14665  eV     1   --> A'             
     e(  2 -  2) =      4.06343  eV     1   --> A'             
     e(  3 -  3) =     10.14830  eV     1   --> A''            
     e(  4 -  4) =     10.32649  eV     1   --> A'             
     e(  5 -  5) =     20.78707  eV     1   --> A'             
     e(  6 -  6) =     24.08369  eV     1   --> A'             
     e(  7 -  7) =     24.12740  eV     1   --> A''            
     e(  8 -  8) =     27.30721  eV     1   --> A'             

 **************************************************************************

 **************************************************************************

                    xk=(   0.22500,   0.22500,   0.45000  )

     Band symmetry, C_s (m)     point group:

     e(  1 -  1) =     -5.12005  eV     1   --> A'             
     e(  2 -  2) =      5.59673  eV     1   --> A'             
     e(  3 -  3) =     10.53270  eV     1   --> A''            
     e(  4 -  4) =     11.11638  eV     1   --> A'             
     e(  5 -  5) =     20.69383  eV     1   --> A'             
     e(  6 -  6) =     23.51921  eV     1   --> A'             
     e(  7 -  7) =     23.68899  eV     1   --> A''            
     e(  8 -  8) =     27.26630  eV     1   --> A'             

 **************************************************************************

 **************************************************************************

                    xk=(   0.18750,   0.18750,   0.37500  )

     Band symmetry, C_s (m)     point group:

     e(  1 -  1) =     -5.95909  eV     1   --> A'             
     e(  2 -  2) =      7.22208  eV     1   --> A'             
     e(  3 -  3) =     11.04018  eV     1   --> A''            
     e(  4 -  4) =     11.85133  eV     1   --> A'             
     e(  5 -  5) =     20.48359  eV     1   --> A'             
     e(  6 -  6) =     22.89505  eV     1   --> A'             
     e(  7 -  7) =     23.07198  eV     1   --> A''            
     e(  8 -  8) =     27.43683  eV     1   --> A'             

 **************************************************************************

 **************************************************************************

                    xk=(   0.15000,   0.15000,   0.30000  )

     Band symmetry, C_s (m)     point group:

     e(  1 -  1) =     -6.65140  eV     1   --> A'             
     e(  2 -  2) =      8.90633  eV     1   --> A'             
     e(  3 -  3) =     11.66605  eV     1   --> A''            
     e(  4 -  4) =     12.51610  eV     1   --> A'             
     e(  5 -  5) =     20.22127  eV     1   --> A'             
     e(  6 -  6) =     22.21024  eV     1   --> A'             
     e(  7 -  7) =     22.26230  eV     1   --> A''            
     e(  8 -  8) =     27.59747  eV     1   --> A'             

 **************************************************************************

 **************************************************************************

                    xk=(   0.11250,   0.11250,   0.22500  )

     Band symmetry, C_s (m)     point group:

     e(  1 -  1) =     -7.19614  eV     1   --> A'             
     e(  2 -  2) =     10.56841  eV     1   --> A'             
     e(  3 -  3) =     12.35009  eV     1   --> A''            
     e(  4 -  4) =     13.05879  eV     1   --> A'             
     e(  5 -  5) =     19.92002  eV     1   --> A'             
     e(  6 -  6) =     21.34066  eV     1   --> A''            
     e(  7 -  7) =     21.43310  eV     1   --> A'             
     e(  8 -  8) =     27.53170  eV     1   --> A'             

 **************************************************************************

 **************************************************************************

                    xk=(   0.07500,   0.07500,   0.15000  )

     Band symmetry, C_s (m)     point group:

     e(  1 -  1) =     -7.58801  eV     1   --> A'             
     e(  2 -  2) =     12.10506  eV     1   --> A'             
     e(  3 -  3) =     13.04173  eV     1   --> A''            
     e(  4 -  4) =     13.47589  eV     1   --> A'             
     e(  5 -  5) =     19.65063  eV     1   --> A'             
     e(  6 -  6) =     20.42194  eV     1   --> A''            
     e(  7 -  7) =     20.53561  eV     1   --> A'             
     e(  8 -  8) =     27.32194  eV     1   --> A'             

 **************************************************************************

 **************************************************************************

                    xk=(   0.03750,   0.03750,   0.07500  )

     Band symmetry, C_s (m)     point group:

     e(  1 -  1) =     -7.82333  eV     1   --> A'             
     e(  2 -  2) =     13.33498  eV     1   --> A'             
     e(  3 -  3) =     13.61396  eV     1   --> A''            
     e(  4 -  4) =     13.75131  eV     1   --> A'             
     e(  5 -  5) =     19.46853  eV     1   --> A'             
     e(  6 -  6) =     19.69372  eV     1   --> A''            
     e(  7 -  7) =     19.75957  eV     1   --> A'             
     e(  8 -  8) =     27.12896  eV     1   --> A'             

 **************************************************************************

 **************************************************************************

                    xk=(   0.00000,   0.00000,   0.00000  )

     point group O_h (m-3m) 
     there are 10 classes
     the character table:

       E     8C3   3C2   6C4   6C2'  i     8S6   3s_h  6S4   6s_d 
A_1g   1.00  1.00  1.00  1.00  1.00  1.00  1.00  1.00  1.00  1.00
A_2g   1.00  1.00  1.00 -1.00 -1.00  1.00  1.00  1.00 -1.00 -1.00
E_g    2.00 -1.00  2.00  0.00  0.00  2.00 -1.00  2.00  0.00  0.00
T_1g   3.00  0.00 -1.00  1.00 -1.00  3.00  0.00 -1.00  1.00 -1.00
T_2g   3.00  0.00 -1.00 -1.00  1.00  3.00  0.00 -1.00 -1.00  1.00
A_1u   1.00  1.00  1.00  1.00  1.00 -1.00 -1.00 -1.00 -1.00 -1.00
A_2u   1.00  1.00  1.00 -1.00 -1.00 -1.00 -1.00 -1.00  1.00  1.00
E_u    2.00 -1.00  2.00  0.00  0.00 -2.00  1.00 -2.00  0.00  0.00
T_1u   3.00  0.00 -1.00  1.00 -1.00 -3.00  0.00  1.00 -1.00  1.00
T_2u   3.00  0.00 -1.00 -1.00  1.00 -3.00  0.00  1.00  1.00 -1.00

     the symmetry operations in each class and the name of the first element:

     E        1
                                                                 
     8C3     17   19   20   18   24   21   22   23
                                                                 
     3C2      2    4    3
                                                                 
     6C4      7    8   15   16   12   11
                                                                 
     6C2'     5    6   14   13   10    9
                                                                 
     i       25
                                                                 
     8S6     41   43   44   42   48   45   46   47
                                                                 
     3s_h    26   28   27
                                                                 
     6S4     31   32   39   40   36   35
                                                                 
     6s_d    29   30   38   37   34   33
                                                                 

     Band symmetry, O_h (m-3m)  point group:

     e(  1 -  1) =     -7.90210  eV     1   --> A_1g G_1   G_1+
     e(  2 -  4) =     13.84835  eV     3   --> T_2g G_25' G_5+
     e(  5 -  7) =     19.40281  eV     3   --> T_1u G_15  G_4-
     e(  8 -  8) =     27.05394  eV     1   --> A_2u G_2'  G_2-

 **************************************************************************

 **************************************************************************

                    xk=(   0.05000,   0.05000,   0.05000  )

     point group C_3v (3m)  
     there are  3 classes
     the character table:

       E     2C3   3s_v 
A_1    1.00  1.00  1.00
A_2    1.00  1.00 -1.00
E      2.00 -1.00  0.00

     the symmetry operations in each class and the name of the first element:

     E        1
                                                                 
     2C3      2    3
                                                                 
     3s_v     4    5    6
                                                                 

     Band symmetry, C_3v (3m)   point group:

     e(  1 -  1) =     -7.83208  eV     1   --> A_1  L_1       
     e(  2 -  2) =     13.34715  eV     1   --> A_1  L_1       
     e(  3 -  4) =     13.72152  eV     2   --> E    L_3       
     e(  5 -  6) =     19.56904  eV     2   --> E    L_3       
     e(  7 -  7) =     19.70740  eV     1   --> A_1  L_1       
     e(  8 -  8) =     27.12280  eV     1   --> A_1  L_1       

 **************************************************************************

 **************************************************************************

                    xk=(   0.10000,   0.10000,   0.10000  )

     Band symmetry, C_3v (3m)   point group:

     e(  1 -  1) =     -7.62296  eV     1   --> A_1  L_1       
     e(  2 -  2) =     12.14362  eV     1   --> A_1  L_1       
     e(  3 -  4) =     13.39579  eV     2   --> E    L_3       
     e(  5 -  6) =     20.00612  eV     2   --> E    L_3       
     e(  7 -  7) =     20.35731  eV     1   --> A_1  L_1       
     e(  8 -  8) =     27.32777  eV     1   --> A_1  L_1       

 **************************************************************************

 **************************************************************************

                    xk=(   0.15000,   0.15000,   0.15000  )

     Band symmetry, C_3v (3m)   point group:

     e(  1 -  1) =     -7.27453  eV     1   --> A_1  L_1       
     e(  2 -  2) =     10.57099  eV     1   --> A_1  L_1       
     e(  3 -  4) =     12.96194  eV     2   --> E    L_3       
     e(  5 -  6) =     20.58015  eV     2   --> E    L_3       
     e(  7 -  7) =     21.05152  eV     1   --> A_1  L_1       
     e(  8 -  8) =     27.66242  eV     1   --> A_1  L_1       

 **************************************************************************

 **************************************************************************

                    xk=(   0.20000,   0.20000,   0.20000  )

     Band symmetry, C_3v (3m)   point group:

     e(  1 -  1) =     -6.78895  eV     1   --> A_1  L_1       
     e(  2 -  2) =      8.87386  eV     1   --> A_1  L_1       
     e(  3 -  4) =     12.52603  eV     2   --> E    L_3       
     e(  5 -  6) =     21.16519  eV     2   --> E    L_3       
     e(  7 -  7) =     21.57315  eV     1   --> A_1  L_1       
     e(  8 -  8) =     28.09395  eV     1   --> A_1  L_1       

 **************************************************************************

 **************************************************************************

                    xk=(   0.25000,   0.25000,   0.25000  )

     Band symmetry, C_3v (3m)   point group:

     e(  1 -  1) =     -6.17039  eV     1   --> A_1  L_1       
     e(  2 -  2) =      7.11616  eV     1   --> A_1  L_1       
     e(  3 -  4) =     12.09577  eV     2   --> E    L_3       
     e(  5 -  6) =     21.64581  eV     2   --> E    L_3       
     e(  7 -  7) =     21.93426  eV     1   --> A_1  L_1       
     e(  8 -  8) =     28.54674  eV     1   --> A_1  L_1       

 **************************************************************************

 **************************************************************************

                    xk=(   0.30000,   0.30000,   0.30000  )

     Band symmetry, C_3v (3m)   point group:

     e(  1 -  1) =     -5.42619  eV     1   --> A_1  L_1       
     e(  2 -  2) =      5.41432  eV     1   --> A_1  L_1       
     e(  3 -  4) =     11.70907  eV     2   --> E    L_3       
     e(  5 -  6) =     21.99449  eV     2   --> E    L_3       
     e(  7 -  7) =     22.17871  eV     1   --> A_1  L_1       
     e(  8 -  8) =     28.94241  eV     1   --> A_1  L_1       

 **************************************************************************

 **************************************************************************

                    xk=(   0.35000,   0.35000,   0.35000  )

     Band symmetry, C_3v (3m)   point group:

     e(  1 -  1) =     -4.55813  eV     1   --> A_1  L_1       
     e(  2 -  2) =      3.76311  eV     1   --> A_1  L_1       
     e(  3 -  4) =     11.39631  eV     2   --> E    L_3       
     e(  5 -  6) =     22.17650  eV     2   --> E    L_3       
     e(  7 -  7) =     22.34726  eV     1   --> A_1  L_1       
     e(  8 -  8) =     29.19685  eV     1   --> A_1  L_1       

 **************************************************************************

 **************************************************************************

                    xk=(   0.40000,   0.40000,   0.40000  )

     Band symmetry, C_3v (3m)   point group:

     e(  1 -  1) =     -3.59664  eV     1   --> A_1  L_1       
     e(  2 -  2) =      2.24215  eV     1   --> A_1  L_1       
     e(  3 -  4) =     11.18882  eV     2   --> E    L_3       
     e(  5 -  6) =     22.24250  eV     2   --> E    L_3       
     e(  7 -  7) =     22.46697  eV     1   --> A_1  L_1       
     e(  8 -  8) =     29.39213  eV     1   --> A_1  L_1       

 **************************************************************************

 **************************************************************************

                    xk=(   0.45000,   0.45000,   0.45000  )

     Band symmetry, C_3v (3m)   point group:

     e(  1 -  1) =     -2.63103  eV     1   --> A_1  L_1       
     e(  2 -  2) =      0.91318  eV     1   --> A_1  L_1       
     e(  3 -  4) =     11.05481  eV     2   --> E    L_3       
     e(  5 -  6) =     22.25870  eV     2   --> E    L_3       
     e(  7 -  7) =     22.52413  eV     1   --> A_1  L_1       
     e(  8 -  8) =     29.48695  eV     1   --> A_1  L_1       

 **************************************************************************

 **************************************************************************

                    xk=(   0.50000,   0.50000,   0.50000  )

     zone border point and non-symmorphic group 
     symmetry decomposition not available

 **************************************************************************

 **************************************************************************

                    xk=(   0.47500,   0.47500,   0.47500  )

     point group C_3v (3m)  
     there are  3 classes
     the character table:

       E     2C3   3s_v 
A_1    1.00  1.00  1.00
A_2    1.00  1.00 -1.00
E      2.00 -1.00  0.00

     the symmetry operations in each class and the name of the first element:

     E        1
                                                                 
     2C3      2    3
                                                                 
     3s_v     4    5    6
                                                                 

     Band symmetry, C_3v (3m)   point group:

     e(  1 -  1) =     -2.23736  eV     1   --> A_1  L_1       
     e(  2 -  2) =      0.43942  eV     1   --> A_1  L_1       
     e(  3 -  4) =     11.02224  eV     2   --> E    L_3       
     e(  5 -  6) =     22.26096  eV     2   --> E    L_3       
     e(  7 -  7) =     22.54200  eV     1   --> A_1  L_1       
     e(  8 -  8) =     29.54386  eV     1   --> A_1  L_1       

 **************************************************************************

 **************************************************************************

                    xk=(   0.45000,   0.45000,   0.45000  )

     Band symmetry, C_3v (3m)   point group:

     e(  1 -  1) =     -2.63103  eV     1   --> A_1  L_1       
     e(  2 -  2) =      0.91318  eV     1   --> A_1  L_1       
     e(  3 -  4) =     11.05481  eV     2   --> E    L_3       
     e(  5 -  6) =     22.25870  eV     2   --> E    L_3       
     e(  7 -  7) =     22.52413  eV     1   --> A_1  L_1       
     e(  8 -  8) =     29.48695  eV     1   --> A_1  L_1       

 **************************************************************************

 **************************************************************************

                    xk=(   0.42500,   0.42500,   0.42500  )

     Band symmetry, C_3v (3m)   point group:

     e(  1 -  1) =     -3.09862  eV     1   --> A_1  L_1       
     e(  2 -  2) =      1.54449  eV     1   --> A_1  L_1       
     e(  3 -  4) =     11.11131  eV     2   --> E    L_3       
     e(  5 -  6) =     22.25722  eV     2   --> E    L_3       
     e(  7 -  7) =     22.50126  eV     1   --> A_1  L_1       
     e(  8 -  8) =     29.45406  eV     1   --> A_1  L_1       

 **************************************************************************

 **************************************************************************

                    xk=(   0.40000,   0.40000,   0.40000  )

     Band symmetry, C_3v (3m)   point group:

     e(  1 -  1) =     -3.59664  eV     1   --> A_1  L_1       
     e(  2 -  2) =      2.24215  eV     1   --> A_1  L_1       
     e(  3 -  4) =     11.18882  eV     2   --> E    L_3       
     e(  5 -  6) =     22.24250  eV     2   --> E    L_3       
     e(  7 -  7) =     22.46697  eV     1   --> A_1  L_1       
     e(  8 -  8) =     29.39213  eV     1   --> A_1  L_1       

 **************************************************************************

 **************************************************************************

                    xk=(   0.37500,   0.37500,   0.37500  )

     Band symmetry, C_3v (3m)   point group:

     e(  1 -  1) =     -4.08529  eV     1   --> A_1  L_1       
     e(  2 -  2) =      2.98970  eV     1   --> A_1  L_1       
     e(  3 -  4) =     11.27839  eV     2   --> E    L_3       
     e(  5 -  6) =     22.23816  eV     2   --> E    L_3       
     e(  7 -  7) =     22.42034  eV     1   --> A_1  L_1       
     e(  8 -  8) =     29.31393  eV     1   --> A_1  L_1       

 **************************************************************************

 **************************************************************************

                    xk=(   0.35000,   0.35000,   0.35000  )

     Band symmetry, C_3v (3m)   point group:

     e(  1 -  1) =     -4.55813  eV     1   --> A_1  L_1       
     e(  2 -  2) =      3.76311  eV     1   --> A_1  L_1       
     e(  3 -  4) =     11.39631  eV     2   --> E    L_3       
     e(  5 -  6) =     22.17650  eV     2   --> E    L_3       
     e(  7 -  7) =     22.34726  eV     1   --> A_1  L_1       
     e(  8 -  8) =     29.19685  eV     1   --> A_1  L_1       

 **************************************************************************

 **************************************************************************

                    xk=(   0.32500,   0.32500,   0.32500  )

     Band symmetry, C_3v (3m)   point group:

     e(  1 -  1) =     -5.00621  eV     1   --> A_1  L_1       
     e(  2 -  2) =      4.57436  eV     1   --> A_1  L_1       
     e(  3 -  4) =     11.53682  eV     2   --> E    L_3       
     e(  5 -  6) =     22.10039  eV     2   --> E    L_3       
     e(  7 -  7) =     22.27162  eV     1   --> A_1  L_1       
     e(  8 -  8) =     29.05083  eV     1   --> A_1  L_1       

 **************************************************************************

 **************************************************************************

                    xk=(   0.30000,   0.30000,   0.30000  )

     Band symmetry, C_3v (3m)   point group:

     e(  1 -  1) =     -5.42619  eV     1   --> A_1  L_1       
     e(  2 -  2) =      5.41432  eV     1   --> A_1  L_1       
     e(  3 -  4) =     11.70907  eV     2   --> E    L_3       
     e(  5 -  6) =     21.99449  eV     2   --> E    L_3       
     e(  7 -  7) =     22.17871  eV     1   --> A_1  L_1       
     e(  8 -  8) =     28.94241  eV     1   --> A_1  L_1       

 **************************************************************************

 **************************************************************************

                    xk=(   0.27500,   0.27500,   0.27500  )

     Band symmetry, C_3v (3m)   point group:

     e(  1 -  1) =     -5.81146  eV     1   --> A_1  L_1       
     e(  2 -  2) =      6.25175  eV     1   --> A_1  L_1       
     e(  3 -  4) =     11.90157  eV     2   --> E    L_3       
     e(  5 -  6) =     21.83341  eV     2   --> E    L_3       
     e(  7 -  7) =     22.06978  eV     1   --> A_1  L_1       
     e(  8 -  8) =     28.77010  eV     1   --> A_1  L_1       

 **************************************************************************

 **************************************************************************

                    xk=(   0.25000,   0.25000,   0.25000  )

     Band symmetry, C_3v (3m)   point group:

     e(  1 -  1) =     -6.17039  eV     1   --> A_1  L_1       
     e(  2 -  2) =      7.11616  eV     1   --> A_1  L_1       
     e(  3 -  4) =     12.09577  eV     2   --> E    L_3       
     e(  5 -  6) =     21.64581  eV     2   --> E    L_3       
     e(  7 -  7) =     21.93426  eV     1   --> A_1  L_1       
     e(  8 -  8) =     28.54674  eV     1   --> A_1  L_1       

 **************************************************************************

     BANDS        :      0.36s CPU      0.40s WALL


   This run was terminated on:  22:57:57   5Oct2024            

=------------------------------------------------------------------------------=
   JOB DONE.
=------------------------------------------------------------------------------=
