
     Program BANDS v.7.3.1 starts on  6Oct2024 at  0:12:44 

     This program is part of the open-source Quantum ESPRESSO suite
     for quantum simulation of materials; please cite
         "P. Giannozzi et al., J. Phys.:Condens. Matter 21 395502 (2009);
         "P. Giannozzi et al., J. Phys.:Condens. Matter 29 465901 (2017);
         "P. Giannozzi et al., J. Chem. Phys. 152 154105 (2020);
          URL http://www.quantum-espresso.org", 
     in publications or presentations arising from this work. More details at
     http://www.quantum-espresso.org/quote

     Parallel version (MPI & OpenMP), running on       2 processor cores
     Number of MPI processes:                 2
     Threads/MPI process:                     1

     MPI processes distributed on     1 nodes
     R & G space division:  proc/nbgrp/npool/nimage =       2
     508638 MiB available memory on the printing compute node when the environment starts


     Reading xml data from directory:

     ./diamond.save/

     IMPORTANT: XC functional enforced from input :
     Exchange-correlation= PBE
                           (   1   4   3   4   0   0   0)
     Any further DFT definition will be discarded
     Please, verify this is what you really want


     Parallelization info
     --------------------
     sticks:   dense  smooth     PW     G-vecs:    dense   smooth      PW
     Min         156     156     75                 1847     1847     620
     Max         157     157     76                 1848     1848     623
     Sum         313     313    151                 3695     3695    1243

     Using Slab Decomposition

     Reading collected, re-writing distributed wavefunctions
     high-symmetry point:  0.0000 0.0000 0.0000   x coordinate   0.0000
     high-symmetry point:  0.5000 0.0000 0.5000   x coordinate   0.7071
     high-symmetry point:  0.3750 0.3750 0.7500   x coordinate   1.1748
     high-symmetry point:  0.0000 0.0000 0.0000   x coordinate   2.0934
     high-symmetry point:  0.5000 0.5000 0.5000   x coordinate   2.9594
     high-symmetry point:  0.2500 0.2500 0.2500   x coordinate   3.3924

     Plottable bands (eV) written to file bands.dat.gnu
     Bands written to file bands.dat

 **************************************************************************

                    xk=(   0.00000,   0.00000,   0.00000  )

     point group O_h (m-3m) 
     there are 10 classes
     the character table:

       E     8C3   3C2   6C4   6C2'  i     8S6   3s_h  6S4   6s_d 
A_1g   1.00  1.00  1.00  1.00  1.00  1.00  1.00  1.00  1.00  1.00
A_2g   1.00  1.00  1.00 -1.00 -1.00  1.00  1.00  1.00 -1.00 -1.00
E_g    2.00 -1.00  2.00  0.00  0.00  2.00 -1.00  2.00  0.00  0.00
T_1g   3.00  0.00 -1.00  1.00 -1.00  3.00  0.00 -1.00  1.00 -1.00
T_2g   3.00  0.00 -1.00 -1.00  1.00  3.00  0.00 -1.00 -1.00  1.00
A_1u   1.00  1.00  1.00  1.00  1.00 -1.00 -1.00 -1.00 -1.00 -1.00
A_2u   1.00  1.00  1.00 -1.00 -1.00 -1.00 -1.00 -1.00  1.00  1.00
E_u    2.00 -1.00  2.00  0.00  0.00 -2.00  1.00 -2.00  0.00  0.00
T_1u   3.00  0.00 -1.00  1.00 -1.00 -3.00  0.00  1.00 -1.00  1.00
T_2u   3.00  0.00 -1.00 -1.00  1.00 -3.00  0.00  1.00  1.00 -1.00

     the symmetry operations in each class and the name of the first element:

     E        1
                                                                 
     8C3     17   19   20   18   24   21   22   23
                                                                 
     3C2      2    4    3
                                                                 
     6C4      7    8   15   16   12   11
                                                                 
     6C2'     5    6   14   13   10    9
                                                                 
     i       25
                                                                 
     8S6     41   43   44   42   48   45   46   47
                                                                 
     3s_h    26   28   27
                                                                 
     6S4     31   32   39   40   36   35
                                                                 
     6s_d    29   30   38   37   34   33
                                                                 

     Band symmetry, O_h (m-3m)  point group:

     e(  1 -  1) =     -8.11436  eV     1   --> A_1g G_1   G_1+
     e(  2 -  4) =     13.33865  eV     3   --> T_2g G_25' G_5+
     e(  5 -  7) =     18.94127  eV     3   --> T_1u G_15  G_4-
     e(  8 -  8) =     26.71845  eV     1   --> A_2u G_2'  G_2-

 **************************************************************************

 **************************************************************************

                    xk=(   0.05000,   0.00000,   0.05000  )

     point group C_2v (mm2) 
     there are  4 classes
     the character table:

       E     C2    s_v   s_v' 
A_1    1.00  1.00  1.00  1.00
A_2    1.00  1.00 -1.00 -1.00
B_1    1.00 -1.00  1.00 -1.00
B_2    1.00 -1.00 -1.00  1.00

     the symmetry operations in each class and the name of the first element:

     E        1
                                                                 
     C2       2
                                                                 
     s_v      3
                                                                 
     s_v'     4
                                                                 

     Band symmetry, C_2v (mm2)  point group:

     e(  1 -  1) =     -8.06819  eV     1   --> A_1  D_1  S_1  
     e(  2 -  2) =     13.06572  eV     1   --> B_2  D_4  S_4  
     e(  3 -  3) =     13.14435  eV     1   --> A_1  D_1  S_1  
     e(  4 -  4) =     13.31032  eV     1   --> A_2  D_2  S_2  
     e(  5 -  5) =     18.98818  eV     1   --> B_1  D_3  S_3  
     e(  6 -  6) =     19.09217  eV     1   --> A_1  D_1  S_1  
     e(  7 -  7) =     19.16722  eV     1   --> B_2  D_4  S_4  
     e(  8 -  8) =     26.75622  eV     1   --> B_2  D_4  S_4  

 **************************************************************************

 **************************************************************************

                    xk=(   0.10000,   0.00000,   0.10000  )

     Band symmetry, C_2v (mm2)  point group:

     e(  1 -  1) =     -7.92980  eV     1   --> A_1  D_1  S_1  
     e(  2 -  2) =     12.36600  eV     1   --> B_2  D_4  S_4  
     e(  3 -  3) =     12.61932  eV     1   --> A_1  D_1  S_1  
     e(  4 -  4) =     13.22399  eV     1   --> A_2  D_2  S_2  
     e(  5 -  5) =     19.12861  eV     1   --> B_1  D_3  S_3  
     e(  6 -  6) =     19.49417  eV     1   --> A_1  D_1  S_1  
     e(  7 -  7) =     19.72006  eV     1   --> B_2  D_4  S_4  
     e(  8 -  8) =     26.85939  eV     1   --> B_2  D_4  S_4  

 **************************************************************************

 **************************************************************************

                    xk=(   0.15000,   0.00000,   0.15000  )

     Band symmetry, C_2v (mm2)  point group:

     e(  1 -  1) =     -7.69959  eV     1   --> A_1  D_1  S_1  
     e(  2 -  2) =     11.43816  eV     1   --> B_2  D_4  S_4  
     e(  3 -  3) =     11.87714  eV     1   --> A_1  D_1  S_1  
     e(  4 -  4) =     13.07617  eV     1   --> A_2  D_2  S_2  
     e(  5 -  5) =     19.36159  eV     1   --> B_1  D_3  S_3  
     e(  6 -  6) =     20.05395  eV     1   --> A_1  D_1  S_1  
     e(  7 -  7) =     20.38638  eV     1   --> B_2  D_4  S_4  
     e(  8 -  8) =     26.99618  eV     1   --> B_2  D_4  S_4  

 **************************************************************************

 **************************************************************************

                    xk=(   0.20000,   0.00000,   0.20000  )

     Band symmetry, C_2v (mm2)  point group:

     e(  1 -  1) =     -7.37824  eV     1   --> A_1  D_1  S_1  
     e(  2 -  2) =     10.41403  eV     1   --> B_2  D_4  S_4  
     e(  3 -  3) =     11.01336  eV     1   --> A_1  D_1  S_1  
     e(  4 -  4) =     12.86269  eV     1   --> A_2  D_2  S_2  
     e(  5 -  5) =     19.68570  eV     1   --> B_1  D_3  S_3  
     e(  6 -  6) =     20.70497  eV     1   --> A_1  D_1  S_1  
     e(  7 -  7) =     21.01725  eV     1   --> B_2  D_4  S_4  
     e(  8 -  8) =     27.11426  eV     1   --> B_2  D_4  S_4  

 **************************************************************************

 **************************************************************************

                    xk=(   0.25000,   0.00000,   0.25000  )

     Band symmetry, C_2v (mm2)  point group:

     e(  1 -  1) =     -6.96678  eV     1   --> A_1  D_1  S_1  
     e(  2 -  2) =      9.36433  eV     1   --> B_2  D_4  S_4  
     e(  3 -  3) =     10.09198  eV     1   --> A_1  D_1  S_1  
     e(  4 -  4) =     12.58064  eV     1   --> A_2  D_2  S_2  
     e(  5 -  5) =     20.09875  eV     1   --> B_1  D_3  S_3  
     e(  6 -  6) =     21.41603  eV     1   --> A_1  D_1  S_1  
     e(  7 -  7) =     21.52823  eV     1   --> B_2  D_4  S_4  
     e(  8 -  8) =     27.16073  eV     1   --> B_2  D_4  S_4  

 **************************************************************************

 **************************************************************************

                    xk=(   0.30000,   0.00000,   0.30000  )

     Band symmetry, C_2v (mm2)  point group:

     e(  1 -  1) =     -6.46679  eV     1   --> A_1  D_1  S_1  
     e(  2 -  2) =      8.32761  eV     1   --> B_2  D_4  S_4  
     e(  3 -  3) =      9.15505  eV     1   --> A_1  D_1  S_1  
     e(  4 -  4) =     12.23048  eV     1   --> A_2  D_2  S_2  
     e(  5 -  5) =     20.59770  eV     1   --> B_1  D_3  S_3  
     e(  6 -  6) =     21.87056  eV     1   --> B_2  D_4  S_4  
     e(  7 -  7) =     22.17699  eV     1   --> A_1  D_1  S_1  
     e(  8 -  8) =     27.12289  eV     1   --> B_2  D_4  S_4  

 **************************************************************************

 **************************************************************************

                    xk=(   0.35000,   0.00000,   0.35000  )

     Band symmetry, C_2v (mm2)  point group:

     e(  1 -  1) =     -5.88054  eV     1   --> A_1  D_1  S_1  
     e(  2 -  2) =      7.32645  eV     1   --> B_2  D_4  S_4  
     e(  3 -  3) =      8.23165  eV     1   --> A_1  D_1  S_1  
     e(  4 -  4) =     11.81755  eV     1   --> A_2  D_2  S_2  
     e(  5 -  5) =     21.17852  eV     1   --> B_1  D_3  S_3  
     e(  6 -  6) =     22.01401  eV     1   --> B_2  D_4  S_4  
     e(  7 -  7) =     22.98712  eV     1   --> A_1  D_1  S_1  
     e(  8 -  8) =     27.05101  eV     1   --> B_2  D_4  S_4  

 **************************************************************************

 **************************************************************************

                    xk=(   0.40000,   0.00000,   0.40000  )

     Band symmetry, C_2v (mm2)  point group:

     e(  1 -  1) =     -5.21136  eV     1   --> A_1  D_1  S_1  
     e(  2 -  2) =      6.37496  eV     1   --> B_2  D_4  S_4  
     e(  3 -  3) =      7.34331  eV     1   --> A_1  D_1  S_1  
     e(  4 -  4) =     11.35236  eV     1   --> A_2  D_2  S_2  
     e(  5 -  5) =     21.83600  eV     1   --> B_1  D_3  S_3  
     e(  6 -  6) =     21.94813  eV     1   --> B_2  D_4  S_4  
     e(  7 -  7) =     23.84811  eV     1   --> A_1  D_1  S_1  
     e(  8 -  8) =     27.02424  eV     1   --> B_2  D_4  S_4  

 **************************************************************************

 **************************************************************************

                    xk=(   0.45000,   0.00000,   0.45000  )

     Band symmetry, C_2v (mm2)  point group:

     e(  1 -  1) =     -4.46433  eV     1   --> A_1  D_1  S_1  
     e(  2 -  2) =      5.48247  eV     1   --> B_2  D_4  S_4  
     e(  3 -  3) =      6.50736  eV     1   --> A_1  D_1  S_1  
     e(  4 -  4) =     10.84956  eV     1   --> A_2  D_2  S_2  
     e(  5 -  5) =     21.69494  eV     1   --> B_2  D_4  S_4  
     e(  6 -  6) =     22.56341  eV     1   --> B_1  D_3  S_3  
     e(  7 -  7) =     24.75900  eV     1   --> A_1  D_1  S_1  
     e(  8 -  8) =     27.09558  eV     1   --> B_2  D_4  S_4  

 **************************************************************************

 **************************************************************************

                    xk=(   0.50000,   0.00000,   0.50000  )

     Band symmetry, C_2v (mm2)  point group:

     e(  1 -  1) =     -3.64740  eV     1   --> A_1  D_1  S_1  
     e(  2 -  2) =      4.65542  eV     1   --> B_2  D_4  S_4  
     e(  3 -  3) =      5.73965  eV     1   --> A_1  D_1  S_1  
     e(  4 -  4) =     10.32630  eV     1   --> A_2  D_2  S_2  
     e(  5 -  5) =     21.30697  eV     1   --> B_2  D_4  S_4  
     e(  6 -  6) =     23.35194  eV     1   --> B_1  D_3  S_3  
     e(  7 -  7) =     25.71068  eV     1   --> A_1  D_1  S_1  
     e(  8 -  8) =     27.27202  eV     1   --> B_2  D_4  S_4  

 **************************************************************************

 **************************************************************************

                    xk=(   0.48750,   0.03750,   0.52500  )

     point group C_1 (1)    
     there are  1 classes
     the character table:

       E    
A      1.00

     the symmetry operations in each class and the name of the first element:

     E        1
                                                                 

     Band symmetry, C_1 (1)     point group:

     e(  1 -  1) =     -3.52357  eV     1   --> A              
     e(  2 -  2) =      4.33573  eV     1   --> A              
     e(  3 -  3) =      5.88156  eV     1   --> A              
     e(  4 -  4) =     10.23322  eV     1   --> A              
     e(  5 -  5) =     21.29803  eV     1   --> A              
     e(  6 -  6) =     23.37127  eV     1   --> A              
     e(  7 -  7) =     25.75870  eV     1   --> A              
     e(  8 -  8) =     27.35180  eV     1   --> A              

 **************************************************************************

 **************************************************************************

                    xk=(   0.47500,   0.07500,   0.55000  )

     Band symmetry, C_1 (1)     point group:

     e(  1 -  1) =     -3.36484  eV     1   --> A              
     e(  2 -  2) =      3.81210  eV     1   --> A              
     e(  3 -  3) =      6.25226  eV     1   --> A              
     e(  4 -  4) =     10.08946  eV     1   --> A              
     e(  5 -  5) =     21.37657  eV     1   --> A              
     e(  6 -  6) =     23.23001  eV     1   --> A              
     e(  7 -  7) =     25.70472  eV     1   --> A              
     e(  8 -  8) =     27.49623  eV     1   --> A              

 **************************************************************************

 **************************************************************************

                    xk=(   0.46250,   0.11250,   0.57500  )

     Band symmetry, C_1 (1)     point group:

     e(  1 -  1) =     -3.17282  eV     1   --> A              
     e(  2 -  2) =      3.25692  eV     1   --> A              
     e(  3 -  3) =      6.67644  eV     1   --> A              
     e(  4 -  4) =      9.90381  eV     1   --> A              
     e(  5 -  5) =     21.52705  eV     1   --> A              
     e(  6 -  6) =     22.95745  eV     1   --> A              
     e(  7 -  7) =     25.63581  eV     1   --> A              
     e(  8 -  8) =     27.62885  eV     1   --> A              

 **************************************************************************

 **************************************************************************

                    xk=(   0.45000,   0.15000,   0.60000  )

     Band symmetry, C_1 (1)     point group:

     e(  1 -  1) =     -2.95005  eV     1   --> A              
     e(  2 -  2) =      2.71440  eV     1   --> A              
     e(  3 -  3) =      7.10148  eV     1   --> A              
     e(  4 -  4) =      9.69030  eV     1   --> A              
     e(  5 -  5) =     21.69519  eV     1   --> A              
     e(  6 -  6) =     22.64496  eV     1   --> A              
     e(  7 -  7) =     25.58953  eV     1   --> A              
     e(  8 -  8) =     27.71514  eV     1   --> A              

 **************************************************************************

 **************************************************************************

                    xk=(   0.43750,   0.18750,   0.62500  )

     Band symmetry, C_1 (1)     point group:

     e(  1 -  1) =     -2.70065  eV     1   --> A              
     e(  2 -  2) =      2.20215  eV     1   --> A              
     e(  3 -  3) =      7.49252  eV     1   --> A              
     e(  4 -  4) =      9.47102  eV     1   --> A              
     e(  5 -  5) =     21.68347  eV     1   --> A              
     e(  6 -  6) =     22.53734  eV     1   --> A              
     e(  7 -  7) =     25.55517  eV     1   --> A              
     e(  8 -  8) =     27.76309  eV     1   --> A              

 **************************************************************************

 **************************************************************************

                    xk=(   0.42500,   0.22500,   0.65000  )

     Band symmetry, C_1 (1)     point group:

     e(  1 -  1) =     -2.43159  eV     1   --> A              
     e(  2 -  2) =      1.73311  eV     1   --> A              
     e(  3 -  3) =      7.80179  eV     1   --> A              
     e(  4 -  4) =      9.28493  eV     1   --> A              
     e(  5 -  5) =     21.38875  eV     1   --> A              
     e(  6 -  6) =     22.77830  eV     1   --> A              
     e(  7 -  7) =     25.50499  eV     1   --> A              
     e(  8 -  8) =     27.80110  eV     1   --> A              

 **************************************************************************

 **************************************************************************

                    xk=(   0.41250,   0.26250,   0.67500  )

     Band symmetry, C_1 (1)     point group:

     e(  1 -  1) =     -2.15509  eV     1   --> A              
     e(  2 -  2) =      1.32258  eV     1   --> A              
     e(  3 -  3) =      7.95491  eV     1   --> A              
     e(  4 -  4) =      9.19645  eV     1   --> A              
     e(  5 -  5) =     21.04218  eV     1   --> A              
     e(  6 -  6) =     23.16458  eV     1   --> A              
     e(  7 -  7) =     25.41370  eV     1   --> A              
     e(  8 -  8) =     27.86109  eV     1   --> A              

 **************************************************************************

 **************************************************************************

                    xk=(   0.40000,   0.30000,   0.70000  )

     Band symmetry, C_1 (1)     point group:

     e(  1 -  1) =     -1.89328  eV     1   --> A              
     e(  2 -  2) =      0.99424  eV     1   --> A              
     e(  3 -  3) =      7.90718  eV     1   --> A              
     e(  4 -  4) =      9.23865  eV     1   --> A              
     e(  5 -  5) =     20.75831  eV     1   --> A              
     e(  6 -  6) =     23.59348  eV     1   --> A              
     e(  7 -  7) =     25.27345  eV     1   --> A              
     e(  8 -  8) =     27.96481  eV     1   --> A              

 **************************************************************************

 **************************************************************************

                    xk=(   0.38750,   0.33750,   0.72500  )

     Band symmetry, C_1 (1)     point group:

     e(  1 -  1) =     -1.68386  eV     1   --> A              
     e(  2 -  2) =      0.78630  eV     1   --> A              
     e(  3 -  3) =      7.72165  eV     1   --> A              
     e(  4 -  4) =      9.33683  eV     1   --> A              
     e(  5 -  5) =     20.58405  eV     1   --> A              
     e(  6 -  6) =     23.99367  eV     1   --> A              
     e(  7 -  7) =     25.11945  eV     1   --> A              
     e(  8 -  8) =     28.11536  eV     1   --> A              

 **************************************************************************

 **************************************************************************

                    xk=(   0.37500,   0.37500,   0.75000  )

     point group C_s (m)    
     there are  2 classes
     the character table:

       E     s    
A'     1.00  1.00
A''    1.00 -1.00

     the symmetry operations in each class and the name of the first element:

     E        1
                                                                 
     s        2
                                                                 

     Band symmetry, C_s (m)     point group:

     e(  1 -  1) =     -1.57512  eV     1   --> A'             
     e(  2 -  2) =      0.74666  eV     1   --> A'             
     e(  3 -  3) =      7.47780  eV     1   --> A'             
     e(  4 -  4) =      9.40339  eV     1   --> A''            
     e(  5 -  5) =     20.54463  eV     1   --> A'             
     e(  6 -  6) =     24.19592  eV     1   --> A''            
     e(  7 -  7) =     25.10874  eV     1   --> A'             
     e(  8 -  8) =     28.29288  eV     1   --> A'             

 **************************************************************************

 **************************************************************************

                    xk=(   0.33750,   0.33750,   0.67500  )

     Band symmetry, C_s (m)     point group:

     e(  1 -  1) =     -2.24626  eV     1   --> A'             
     e(  2 -  2) =      1.23164  eV     1   --> A'             
     e(  3 -  3) =      8.26882  eV     1   --> A'             
     e(  4 -  4) =      9.36793  eV     1   --> A''            
     e(  5 -  5) =     20.48040  eV     1   --> A'             
     e(  6 -  6) =     24.09067  eV     1   --> A''            
     e(  7 -  7) =     24.65314  eV     1   --> A'             
     e(  8 -  8) =     27.70206  eV     1   --> A'             

 **************************************************************************

 **************************************************************************

                    xk=(   0.30000,   0.30000,   0.60000  )

     Band symmetry, C_s (m)     point group:

     e(  1 -  1) =     -3.32765  eV     1   --> A'             
     e(  2 -  2) =      2.37412  eV     1   --> A'             
     e(  3 -  3) =      9.08068  eV     1   --> A'             
     e(  4 -  4) =      9.46799  eV     1   --> A''            
     e(  5 -  5) =     20.45382  eV     1   --> A'             
     e(  6 -  6) =     23.88622  eV     1   --> A''            
     e(  7 -  7) =     24.16231  eV     1   --> A'             
     e(  8 -  8) =     27.18139  eV     1   --> A'             

 **************************************************************************

 **************************************************************************

                    xk=(   0.26250,   0.26250,   0.52500  )

     Band symmetry, C_s (m)     point group:

     e(  1 -  1) =     -4.39395  eV     1   --> A'             
     e(  2 -  2) =      3.74832  eV     1   --> A'             
     e(  3 -  3) =      9.70621  eV     1   --> A''            
     e(  4 -  4) =      9.88467  eV     1   --> A'             
     e(  5 -  5) =     20.40534  eV     1   --> A'             
     e(  6 -  6) =     23.57381  eV     1   --> A''            
     e(  7 -  7) =     23.63191  eV     1   --> A'             
     e(  8 -  8) =     26.88464  eV     1   --> A'             

 **************************************************************************

 **************************************************************************

                    xk=(   0.22500,   0.22500,   0.45000  )

     Band symmetry, C_s (m)     point group:

     e(  1 -  1) =     -5.35603  eV     1   --> A'             
     e(  2 -  2) =      5.25650  eV     1   --> A'             
     e(  3 -  3) =     10.07990  eV     1   --> A''            
     e(  4 -  4) =     10.65467  eV     1   --> A'             
     e(  5 -  5) =     20.27800  eV     1   --> A'             
     e(  6 -  6) =     23.05437  eV     1   --> A'             
     e(  7 -  7) =     23.12288  eV     1   --> A''            
     e(  8 -  8) =     26.85508  eV     1   --> A'             

 **************************************************************************

 **************************************************************************

                    xk=(   0.18750,   0.18750,   0.37500  )

     Band symmetry, C_s (m)     point group:

     e(  1 -  1) =     -6.18711  eV     1   --> A'             
     e(  2 -  2) =      6.85393  eV     1   --> A'             
     e(  3 -  3) =     10.57999  eV     1   --> A''            
     e(  4 -  4) =     11.36835  eV     1   --> A'             
     e(  5 -  5) =     20.05458  eV     1   --> A'             
     e(  6 -  6) =     22.41809  eV     1   --> A'             
     e(  7 -  7) =     22.50403  eV     1   --> A''            
     e(  8 -  8) =     27.00628  eV     1   --> A'             

 **************************************************************************

 **************************************************************************

                    xk=(   0.15000,   0.15000,   0.30000  )

     Band symmetry, C_s (m)     point group:

     e(  1 -  1) =     -6.87562  eV     1   --> A'             
     e(  2 -  2) =      8.49792  eV     1   --> A'             
     e(  3 -  3) =     11.18800  eV     1   --> A''            
     e(  4 -  4) =     12.00629  eV     1   --> A'             
     e(  5 -  5) =     19.76486  eV     1   --> A'             
     e(  6 -  6) =     21.70799  eV     1   --> A'             
     e(  7 -  7) =     21.71901  eV     1   --> A''            
     e(  8 -  8) =     27.13942  eV     1   --> A'             

 **************************************************************************

 **************************************************************************

                    xk=(   0.11250,   0.11250,   0.22500  )

     Band symmetry, C_s (m)     point group:

     e(  1 -  1) =     -7.41547  eV     1   --> A'             
     e(  2 -  2) =     10.12904  eV     1   --> A'             
     e(  3 -  3) =     11.86868  eV     1   --> A''            
     e(  4 -  4) =     12.54865  eV     1   --> A'             
     e(  5 -  5) =     19.46013  eV     1   --> A'             
     e(  6 -  6) =     20.82242  eV     1   --> A''            
     e(  7 -  7) =     20.91361  eV     1   --> A'             
     e(  8 -  8) =     27.10367  eV     1   --> A'             

 **************************************************************************

 **************************************************************************

                    xk=(   0.07500,   0.07500,   0.15000  )

     Band symmetry, C_s (m)     point group:

     e(  1 -  1) =     -7.80312  eV     1   --> A'             
     e(  2 -  2) =     11.64564  eV     1   --> A'             
     e(  3 -  3) =     12.55376  eV     1   --> A''            
     e(  4 -  4) =     12.97108  eV     1   --> A'             
     e(  5 -  5) =     19.19230  eV     1   --> A'             
     e(  6 -  6) =     19.92933  eV     1   --> A''            
     e(  7 -  7) =     20.06128  eV     1   --> A'             
     e(  8 -  8) =     26.94034  eV     1   --> A'             

 **************************************************************************

 **************************************************************************

                    xk=(   0.03750,   0.03750,   0.07500  )

     Band symmetry, C_s (m)     point group:

     e(  1 -  1) =     -8.03646  eV     1   --> A'             
     e(  2 -  2) =     12.84406  eV     1   --> A'             
     e(  3 -  3) =     13.11152  eV     1   --> A''            
     e(  4 -  4) =     13.24377  eV     1   --> A'             
     e(  5 -  5) =     19.00758  eV     1   --> A'             
     e(  6 -  6) =     19.22243  eV     1   --> A''            
     e(  7 -  7) =     19.28920  eV     1   --> A'             
     e(  8 -  8) =     26.78125  eV     1   --> A'             

 **************************************************************************

 **************************************************************************

                    xk=(   0.00000,   0.00000,   0.00000  )

     point group O_h (m-3m) 
     there are 10 classes
     the character table:

       E     8C3   3C2   6C4   6C2'  i     8S6   3s_h  6S4   6s_d 
A_1g   1.00  1.00  1.00  1.00  1.00  1.00  1.00  1.00  1.00  1.00
A_2g   1.00  1.00  1.00 -1.00 -1.00  1.00  1.00  1.00 -1.00 -1.00
E_g    2.00 -1.00  2.00  0.00  0.00  2.00 -1.00  2.00  0.00  0.00
T_1g   3.00  0.00 -1.00  1.00 -1.00  3.00  0.00 -1.00  1.00 -1.00
T_2g   3.00  0.00 -1.00 -1.00  1.00  3.00  0.00 -1.00 -1.00  1.00
A_1u   1.00  1.00  1.00  1.00  1.00 -1.00 -1.00 -1.00 -1.00 -1.00
A_2u   1.00  1.00  1.00 -1.00 -1.00 -1.00 -1.00 -1.00  1.00  1.00
E_u    2.00 -1.00  2.00  0.00  0.00 -2.00  1.00 -2.00  0.00  0.00
T_1u   3.00  0.00 -1.00  1.00 -1.00 -3.00  0.00  1.00 -1.00  1.00
T_2u   3.00  0.00 -1.00 -1.00  1.00 -3.00  0.00  1.00  1.00 -1.00

     the symmetry operations in each class and the name of the first element:

     E        1
                                                                 
     8C3     17   19   20   18   24   21   22   23
                                                                 
     3C2      2    4    3
                                                                 
     6C4      7    8   15   16   12   11
                                                                 
     6C2'     5    6   14   13   10    9
                                                                 
     i       25
                                                                 
     8S6     41   43   44   42   48   45   46   47
                                                                 
     3s_h    26   28   27
                                                                 
     6S4     31   32   39   40   36   35
                                                                 
     6s_d    29   30   38   37   34   33
                                                                 

     Band symmetry, O_h (m-3m)  point group:

     e(  1 -  1) =     -8.11436  eV     1   --> A_1g G_1   G_1+
     e(  2 -  4) =     13.33865  eV     3   --> T_2g G_25' G_5+
     e(  5 -  7) =     18.94127  eV     3   --> T_1u G_15  G_4-
     e(  8 -  8) =     26.71845  eV     1   --> A_2u G_2'  G_2-

 **************************************************************************

 **************************************************************************

                    xk=(   0.05000,   0.05000,   0.05000  )

     point group C_3v (3m)  
     there are  3 classes
     the character table:

       E     2C3   3s_v 
A_1    1.00  1.00  1.00
A_2    1.00  1.00 -1.00
E      2.00 -1.00  0.00

     the symmetry operations in each class and the name of the first element:

     E        1
                                                                 
     2C3      2    3
                                                                 
     3s_v     4    5    6
                                                                 

     Band symmetry, C_3v (3m)   point group:

     e(  1 -  1) =     -8.04511  eV     1   --> A_1  L_1       
     e(  2 -  2) =     12.85605  eV     1   --> A_1  L_1       
     e(  3 -  4) =     13.21517  eV     2   --> E    L_3       
     e(  5 -  6) =     19.10235  eV     2   --> E    L_3       
     e(  7 -  7) =     19.24004  eV     1   --> A_1  L_1       
     e(  8 -  8) =     26.77626  eV     1   --> A_1  L_1       

 **************************************************************************

 **************************************************************************

                    xk=(   0.10000,   0.10000,   0.10000  )

     Band symmetry, C_3v (3m)   point group:

     e(  1 -  1) =     -7.83766  eV     1   --> A_1  L_1       
     e(  2 -  2) =     11.66825  eV     1   --> A_1  L_1       
     e(  3 -  4) =     12.89260  eV     2   --> E    L_3       
     e(  5 -  6) =     19.52666  eV     2   --> E    L_3       
     e(  7 -  7) =     19.88733  eV     1   --> A_1  L_1       
     e(  8 -  8) =     26.94822  eV     1   --> A_1  L_1       

 **************************************************************************

 **************************************************************************

                    xk=(   0.15000,   0.15000,   0.15000  )

     Band symmetry, C_3v (3m)   point group:

     e(  1 -  1) =     -7.49294  eV     1   --> A_1  L_1       
     e(  2 -  2) =     10.13900  eV     1   --> A_1  L_1       
     e(  3 -  4) =     12.46629  eV     2   --> E    L_3       
     e(  5 -  6) =     20.08695  eV     2   --> E    L_3       
     e(  7 -  7) =     20.55586  eV     1   --> A_1  L_1       
     e(  8 -  8) =     27.22606  eV     1   --> A_1  L_1       

 **************************************************************************

 **************************************************************************

                    xk=(   0.20000,   0.20000,   0.20000  )

     Band symmetry, C_3v (3m)   point group:

     e(  1 -  1) =     -7.01264  eV     1   --> A_1  L_1       
     e(  2 -  2) =      8.46875  eV     1   --> A_1  L_1       
     e(  3 -  4) =     12.01621  eV     2   --> E    L_3       
     e(  5 -  6) =     20.65686  eV     2   --> E    L_3       
     e(  7 -  7) =     21.10815  eV     1   --> A_1  L_1       
     e(  8 -  8) =     27.58657  eV     1   --> A_1  L_1       

 **************************************************************************

 **************************************************************************

                    xk=(   0.25000,   0.25000,   0.25000  )

     Band symmetry, C_3v (3m)   point group:

     e(  1 -  1) =     -6.39967  eV     1   --> A_1  L_1       
     e(  2 -  2) =      6.76003  eV     1   --> A_1  L_1       
     e(  3 -  4) =     11.59270  eV     2   --> E    L_3       
     e(  5 -  6) =     21.13980  eV     2   --> E    L_3       
     e(  7 -  7) =     21.52130  eV     1   --> A_1  L_1       
     e(  8 -  8) =     27.98733  eV     1   --> A_1  L_1       

 **************************************************************************

 **************************************************************************

                    xk=(   0.30000,   0.30000,   0.30000  )

     Band symmetry, C_3v (3m)   point group:

     e(  1 -  1) =     -5.65908  eV     1   --> A_1  L_1       
     e(  2 -  2) =      5.07350  eV     1   --> A_1  L_1       
     e(  3 -  4) =     11.22462  eV     2   --> E    L_3       
     e(  5 -  6) =     21.48316  eV     2   --> E    L_3       
     e(  7 -  7) =     21.81514  eV     1   --> A_1  L_1       
     e(  8 -  8) =     28.37269  eV     1   --> A_1  L_1       

 **************************************************************************

 **************************************************************************

                    xk=(   0.35000,   0.35000,   0.35000  )

     Band symmetry, C_3v (3m)   point group:

     e(  1 -  1) =     -4.80070  eV     1   --> A_1  L_1       
     e(  2 -  2) =      3.45282  eV     1   --> A_1  L_1       
     e(  3 -  4) =     10.92809  eV     2   --> E    L_3       
     e(  5 -  6) =     21.68484  eV     2   --> E    L_3       
     e(  7 -  7) =     22.01713  eV     1   --> A_1  L_1       
     e(  8 -  8) =     28.68576  eV     1   --> A_1  L_1       

 **************************************************************************

 **************************************************************************

                    xk=(   0.40000,   0.40000,   0.40000  )

     Band symmetry, C_3v (3m)   point group:

     e(  1 -  1) =     -3.84835  eV     1   --> A_1  L_1       
     e(  2 -  2) =      1.94311  eV     1   --> A_1  L_1       
     e(  3 -  4) =     10.71194  eV     2   --> E    L_3       
     e(  5 -  6) =     21.77967  eV     2   --> E    L_3       
     e(  7 -  7) =     22.14862  eV     1   --> A_1  L_1       
     e(  8 -  8) =     28.89603  eV     1   --> A_1  L_1       

 **************************************************************************

 **************************************************************************

                    xk=(   0.45000,   0.45000,   0.45000  )

     Band symmetry, C_3v (3m)   point group:

     e(  1 -  1) =     -2.88523  eV     1   --> A_1  L_1       
     e(  2 -  2) =      0.64078  eV     1   --> A_1  L_1       
     e(  3 -  4) =     10.58076  eV     2   --> E    L_3       
     e(  5 -  6) =     21.81341  eV     2   --> E    L_3       
     e(  7 -  7) =     22.22298  eV     1   --> A_1  L_1       
     e(  8 -  8) =     29.00646  eV     1   --> A_1  L_1       

 **************************************************************************

 **************************************************************************

                    xk=(   0.50000,   0.50000,   0.50000  )

     zone border point and non-symmorphic group 
     symmetry decomposition not available

 **************************************************************************

 **************************************************************************

                    xk=(   0.47500,   0.47500,   0.47500  )

     point group C_3v (3m)  
     there are  3 classes
     the character table:

       E     2C3   3s_v 
A_1    1.00  1.00  1.00
A_2    1.00  1.00 -1.00
E      2.00 -1.00  0.00

     the symmetry operations in each class and the name of the first element:

     E        1
                                                                 
     2C3      2    3
                                                                 
     3s_v     4    5    6
                                                                 

     Band symmetry, C_3v (3m)   point group:

     e(  1 -  1) =     -2.49858  eV     1   --> A_1  L_1       
     e(  2 -  2) =      0.16882  eV     1   --> A_1  L_1       
     e(  3 -  4) =     10.54782  eV     2   --> E    L_3       
     e(  5 -  6) =     21.81905  eV     2   --> E    L_3       
     e(  7 -  7) =     22.24112  eV     1   --> A_1  L_1       
     e(  8 -  8) =     29.03133  eV     1   --> A_1  L_1       

 **************************************************************************

 **************************************************************************

                    xk=(   0.45000,   0.45000,   0.45000  )

     Band symmetry, C_3v (3m)   point group:

     e(  1 -  1) =     -2.88523  eV     1   --> A_1  L_1       
     e(  2 -  2) =      0.64078  eV     1   --> A_1  L_1       
     e(  3 -  4) =     10.58076  eV     2   --> E    L_3       
     e(  5 -  6) =     21.81341  eV     2   --> E    L_3       
     e(  7 -  7) =     22.22298  eV     1   --> A_1  L_1       
     e(  8 -  8) =     29.00646  eV     1   --> A_1  L_1       

 **************************************************************************

 **************************************************************************

                    xk=(   0.42500,   0.42500,   0.42500  )

     Band symmetry, C_3v (3m)   point group:

     e(  1 -  1) =     -3.35677  eV     1   --> A_1  L_1       
     e(  2 -  2) =      1.25407  eV     1   --> A_1  L_1       
     e(  3 -  4) =     10.63554  eV     2   --> E    L_3       
     e(  5 -  6) =     21.80155  eV     2   --> E    L_3       
     e(  7 -  7) =     22.19235  eV     1   --> A_1  L_1       
     e(  8 -  8) =     28.96235  eV     1   --> A_1  L_1       

 **************************************************************************

 **************************************************************************

                    xk=(   0.40000,   0.40000,   0.40000  )

     Band symmetry, C_3v (3m)   point group:

     e(  1 -  1) =     -3.84835  eV     1   --> A_1  L_1       
     e(  2 -  2) =      1.94311  eV     1   --> A_1  L_1       
     e(  3 -  4) =     10.71194  eV     2   --> E    L_3       
     e(  5 -  6) =     21.77967  eV     2   --> E    L_3       
     e(  7 -  7) =     22.14862  eV     1   --> A_1  L_1       
     e(  8 -  8) =     28.89603  eV     1   --> A_1  L_1       

 **************************************************************************

 **************************************************************************

                    xk=(   0.37500,   0.37500,   0.37500  )

     Band symmetry, C_3v (3m)   point group:

     e(  1 -  1) =     -4.33359  eV     1   --> A_1  L_1       
     e(  2 -  2) =      2.68043  eV     1   --> A_1  L_1       
     e(  3 -  4) =     10.80960  eV     2   --> E    L_3       
     e(  5 -  6) =     21.74270  eV     2   --> E    L_3       
     e(  7 -  7) =     22.09068  eV     1   --> A_1  L_1       
     e(  8 -  8) =     28.80416  eV     1   --> A_1  L_1       

 **************************************************************************

 **************************************************************************

                    xk=(   0.35000,   0.35000,   0.35000  )

     Band symmetry, C_3v (3m)   point group:

     e(  1 -  1) =     -4.80070  eV     1   --> A_1  L_1       
     e(  2 -  2) =      3.45282  eV     1   --> A_1  L_1       
     e(  3 -  4) =     10.92809  eV     2   --> E    L_3       
     e(  5 -  6) =     21.68484  eV     2   --> E    L_3       
     e(  7 -  7) =     22.01713  eV     1   --> A_1  L_1       
     e(  8 -  8) =     28.68576  eV     1   --> A_1  L_1       

 **************************************************************************

 **************************************************************************

                    xk=(   0.32500,   0.32500,   0.32500  )

     Band symmetry, C_3v (3m)   point group:

     e(  1 -  1) =     -5.24366  eV     1   --> A_1  L_1       
     e(  2 -  2) =      4.25241  eV     1   --> A_1  L_1       
     e(  3 -  4) =     11.06674  eV     2   --> E    L_3       
     e(  5 -  6) =     21.60012  eV     2   --> E    L_3       
     e(  7 -  7) =     21.92609  eV     1   --> A_1  L_1       
     e(  8 -  8) =     28.54096  eV     1   --> A_1  L_1       

 **************************************************************************

 **************************************************************************

                    xk=(   0.30000,   0.30000,   0.30000  )

     Band symmetry, C_3v (3m)   point group:

     e(  1 -  1) =     -5.65908  eV     1   --> A_1  L_1       
     e(  2 -  2) =      5.07350  eV     1   --> A_1  L_1       
     e(  3 -  4) =     11.22462  eV     2   --> E    L_3       
     e(  5 -  6) =     21.48316  eV     2   --> E    L_3       
     e(  7 -  7) =     21.81514  eV     1   --> A_1  L_1       
     e(  8 -  8) =     28.37269  eV     1   --> A_1  L_1       

 **************************************************************************

 **************************************************************************

                    xk=(   0.27500,   0.27500,   0.27500  )

     Band symmetry, C_3v (3m)   point group:

     e(  1 -  1) =     -6.04488  eV     1   --> A_1  L_1       
     e(  2 -  2) =      5.91106  eV     1   --> A_1  L_1       
     e(  3 -  4) =     11.40051  eV     2   --> E    L_3       
     e(  5 -  6) =     21.33016  eV     2   --> E    L_3       
     e(  7 -  7) =     21.68141  eV     1   --> A_1  L_1       
     e(  8 -  8) =     28.18544  eV     1   --> A_1  L_1       

 **************************************************************************

 **************************************************************************

                    xk=(   0.25000,   0.25000,   0.25000  )

     Band symmetry, C_3v (3m)   point group:

     e(  1 -  1) =     -6.39967  eV     1   --> A_1  L_1       
     e(  2 -  2) =      6.76003  eV     1   --> A_1  L_1       
     e(  3 -  4) =     11.59270  eV     2   --> E    L_3       
     e(  5 -  6) =     21.13980  eV     2   --> E    L_3       
     e(  7 -  7) =     21.52130  eV     1   --> A_1  L_1       
     e(  8 -  8) =     27.98733  eV     1   --> A_1  L_1       

 **************************************************************************

     BANDS        :      0.35s CPU      0.39s WALL


   This run was terminated on:   0:12:44   6Oct2024            

=------------------------------------------------------------------------------=
   JOB DONE.
=------------------------------------------------------------------------------=
