
     Program BANDS v.7.3.1 starts on  6Oct2024 at 14:26:11 

     This program is part of the open-source Quantum ESPRESSO suite
     for quantum simulation of materials; please cite
         "P. Giannozzi et al., J. Phys.:Condens. Matter 21 395502 (2009);
         "P. Giannozzi et al., J. Phys.:Condens. Matter 29 465901 (2017);
         "P. Giannozzi et al., J. Chem. Phys. 152 154105 (2020);
          URL http://www.quantum-espresso.org", 
     in publications or presentations arising from this work. More details at
     http://www.quantum-espresso.org/quote

     Parallel version (MPI & OpenMP), running on       2 processor cores
     Number of MPI processes:                 2
     Threads/MPI process:                     1

     MPI processes distributed on     1 nodes
     R & G space division:  proc/nbgrp/npool/nimage =       2
     481279 MiB available memory on the printing compute node when the environment starts


     Reading xml data from directory:

     ./diamond.save/

     IMPORTANT: XC functional enforced from input :
     Exchange-correlation= PBE
                           (   1   4   3   4   0   0   0)
     Any further DFT definition will be discarded
     Please, verify this is what you really want


     Parallelization info
     --------------------
     sticks:   dense  smooth     PW     G-vecs:    dense   smooth      PW
     Min         150     150     60                 1738     1738     469
     Max         151     151     61                 1741     1741     472
     Sum         301     301    121                 3479     3479     941

     Using Slab Decomposition

     Reading collected, re-writing distributed wavefunctions
     high-symmetry point:  0.0000 0.0000 0.0000   x coordinate   0.0000
     high-symmetry point:  0.5000 0.0000 0.5000   x coordinate   0.7071
     high-symmetry point:  0.3750 0.3750 0.7500   x coordinate   1.1748
     high-symmetry point:  0.0000 0.0000 0.0000   x coordinate   2.0934
     high-symmetry point:  0.5000 0.5000 0.5000   x coordinate   2.9594
     high-symmetry point:  0.2500 0.2500 0.2500   x coordinate   3.3924

     Plottable bands (eV) written to file bands.dat.gnu
     Bands written to file bands.dat

 **************************************************************************

                    xk=(   0.00000,   0.00000,   0.00000  )

     point group O_h (m-3m) 
     there are 10 classes
     the character table:

       E     8C3   3C2   6C4   6C2'  i     8S6   3s_h  6S4   6s_d 
A_1g   1.00  1.00  1.00  1.00  1.00  1.00  1.00  1.00  1.00  1.00
A_2g   1.00  1.00  1.00 -1.00 -1.00  1.00  1.00  1.00 -1.00 -1.00
E_g    2.00 -1.00  2.00  0.00  0.00  2.00 -1.00  2.00  0.00  0.00
T_1g   3.00  0.00 -1.00  1.00 -1.00  3.00  0.00 -1.00  1.00 -1.00
T_2g   3.00  0.00 -1.00 -1.00  1.00  3.00  0.00 -1.00 -1.00  1.00
A_1u   1.00  1.00  1.00  1.00  1.00 -1.00 -1.00 -1.00 -1.00 -1.00
A_2u   1.00  1.00  1.00 -1.00 -1.00 -1.00 -1.00 -1.00  1.00  1.00
E_u    2.00 -1.00  2.00  0.00  0.00 -2.00  1.00 -2.00  0.00  0.00
T_1u   3.00  0.00 -1.00  1.00 -1.00 -3.00  0.00  1.00 -1.00  1.00
T_2u   3.00  0.00 -1.00 -1.00  1.00 -3.00  0.00  1.00  1.00 -1.00

     the symmetry operations in each class and the name of the first element:

     E        1
                                                                 
     8C3     17   19   20   18   24   21   22   23
                                                                 
     3C2      2    4    3
                                                                 
     6C4      7    8   15   16   12   11
                                                                 
     6C2'     5    6   14   13   10    9
                                                                 
     i       25
                                                                 
     8S6     41   43   44   42   48   45   46   47
                                                                 
     3s_h    26   28   27
                                                                 
     6S4     31   32   39   40   36   35
                                                                 
     6s_d    29   30   38   37   34   33
                                                                 

     Band symmetry, O_h (m-3m)  point group:

     e(  1 -  1) =     -7.85076  eV     1   --> A_1g G_1   G_1+
     e(  2 -  4) =     14.35571  eV     3   --> T_2g G_25' G_5+
     e(  5 -  7) =     20.11402  eV     3   --> T_1u G_15  G_4-
     e(  8 -  8) =     29.02722  eV     1   --> A_2u G_2'  G_2-

 **************************************************************************

 **************************************************************************

                    xk=(   0.05000,   0.00000,   0.05000  )

     point group C_2v (mm2) 
     there are  4 classes
     the character table:

       E     C2    s_v   s_v' 
A_1    1.00  1.00  1.00  1.00
A_2    1.00  1.00 -1.00 -1.00
B_1    1.00 -1.00  1.00 -1.00
B_2    1.00 -1.00 -1.00  1.00

     the symmetry operations in each class and the name of the first element:

     E        1
                                                                 
     C2       2
                                                                 
     s_v      3
                                                                 
     s_v'     4
                                                                 

     Band symmetry, C_2v (mm2)  point group:

     e(  1 -  1) =     -7.80284  eV     1   --> A_1  D_1  S_1  
     e(  2 -  2) =     14.07107  eV     1   --> B_2  D_4  S_4  
     e(  3 -  3) =     14.14756  eV     1   --> A_1  D_1  S_1  
     e(  4 -  4) =     14.32619  eV     1   --> A_2  D_2  S_2  
     e(  5 -  5) =     20.16328  eV     1   --> B_1  D_3  S_3  
     e(  6 -  6) =     20.27892  eV     1   --> A_1  D_1  S_1  
     e(  7 -  7) =     20.35623  eV     1   --> B_2  D_4  S_4  
     e(  8 -  8) =     29.05437  eV     1   --> B_2  D_4  S_4  

 **************************************************************************

 **************************************************************************

                    xk=(   0.10000,   0.00000,   0.10000  )

     Band symmetry, C_2v (mm2)  point group:

     e(  1 -  1) =     -7.65920  eV     1   --> A_1  D_1  S_1  
     e(  2 -  2) =     13.34416  eV     1   --> B_2  D_4  S_4  
     e(  3 -  3) =     13.58832  eV     1   --> A_1  D_1  S_1  
     e(  4 -  4) =     14.23621  eV     1   --> A_2  D_2  S_2  
     e(  5 -  5) =     20.31076  eV     1   --> B_1  D_3  S_3  
     e(  6 -  6) =     20.71604  eV     1   --> A_1  D_1  S_1  
     e(  7 -  7) =     20.95016  eV     1   --> B_2  D_4  S_4  
     e(  8 -  8) =     29.12414  eV     1   --> B_2  D_4  S_4  

 **************************************************************************

 **************************************************************************

                    xk=(   0.15000,   0.00000,   0.15000  )

     Band symmetry, C_2v (mm2)  point group:

     e(  1 -  1) =     -7.42019  eV     1   --> A_1  D_1  S_1  
     e(  2 -  2) =     12.38299  eV     1   --> B_2  D_4  S_4  
     e(  3 -  3) =     12.80229  eV     1   --> A_1  D_1  S_1  
     e(  4 -  4) =     14.08170  eV     1   --> A_2  D_2  S_2  
     e(  5 -  5) =     20.55557  eV     1   --> B_1  D_3  S_3  
     e(  6 -  6) =     21.32038  eV     1   --> A_1  D_1  S_1  
     e(  7 -  7) =     21.67032  eV     1   --> B_2  D_4  S_4  
     e(  8 -  8) =     29.19990  eV     1   --> B_2  D_4  S_4  

 **************************************************************************

 **************************************************************************

                    xk=(   0.20000,   0.00000,   0.20000  )

     Band symmetry, C_2v (mm2)  point group:

     e(  1 -  1) =     -7.08646  eV     1   --> A_1  D_1  S_1  
     e(  2 -  2) =     11.32449  eV     1   --> B_2  D_4  S_4  
     e(  3 -  3) =     11.89252  eV     1   --> A_1  D_1  S_1  
     e(  4 -  4) =     13.85830  eV     1   --> A_2  D_2  S_2  
     e(  5 -  5) =     20.89597  eV     1   --> B_1  D_3  S_3  
     e(  6 -  6) =     22.01837  eV     1   --> A_1  D_1  S_1  
     e(  7 -  7) =     22.35735  eV     1   --> B_2  D_4  S_4  
     e(  8 -  8) =     29.22823  eV     1   --> B_2  D_4  S_4  

 **************************************************************************

 **************************************************************************

                    xk=(   0.25000,   0.00000,   0.25000  )

     Band symmetry, C_2v (mm2)  point group:

     e(  1 -  1) =     -6.65899  eV     1   --> A_1  D_1  S_1  
     e(  2 -  2) =     10.24103  eV     1   --> B_2  D_4  S_4  
     e(  3 -  3) =     10.92527  eV     1   --> A_1  D_1  S_1  
     e(  4 -  4) =     13.56190  eV     1   --> A_2  D_2  S_2  
     e(  5 -  5) =     21.33050  eV     1   --> B_1  D_3  S_3  
     e(  6 -  6) =     22.77694  eV     1   --> A_1  D_1  S_1  
     e(  7 -  7) =     22.91704  eV     1   --> B_2  D_4  S_4  
     e(  8 -  8) =     29.16798  eV     1   --> B_2  D_4  S_4  

 **************************************************************************

 **************************************************************************

                    xk=(   0.30000,   0.00000,   0.30000  )

     Band symmetry, C_2v (mm2)  point group:

     e(  1 -  1) =     -6.13923  eV     1   --> A_1  D_1  S_1  
     e(  2 -  2) =      9.17165  eV     1   --> B_2  D_4  S_4  
     e(  3 -  3) =      9.94382  eV     1   --> A_1  D_1  S_1  
     e(  4 -  4) =     13.19266  eV     1   --> A_2  D_2  S_2  
     e(  5 -  5) =     21.85552  eV     1   --> B_1  D_3  S_3  
     e(  6 -  6) =     23.28789  eV     1   --> B_2  D_4  S_4  
     e(  7 -  7) =     23.58537  eV     1   --> A_1  D_1  S_1  
     e(  8 -  8) =     29.03311  eV     1   --> B_2  D_4  S_4  

 **************************************************************************

 **************************************************************************

                    xk=(   0.35000,   0.00000,   0.35000  )

     Band symmetry, C_2v (mm2)  point group:

     e(  1 -  1) =     -5.52937  eV     1   --> A_1  D_1  S_1  
     e(  2 -  2) =      8.14006  eV     1   --> B_2  D_4  S_4  
     e(  3 -  3) =      8.97798  eV     1   --> A_1  D_1  S_1  
     e(  4 -  4) =     12.75654  eV     1   --> A_2  D_2  S_2  
     e(  5 -  5) =     22.46635  eV     1   --> B_1  D_3  S_3  
     e(  6 -  6) =     23.43049  eV     1   --> B_2  D_4  S_4  
     e(  7 -  7) =     24.44275  eV     1   --> A_1  D_1  S_1  
     e(  8 -  8) =     28.90005  eV     1   --> B_2  D_4  S_4  

 **************************************************************************

 **************************************************************************

                    xk=(   0.40000,   0.00000,   0.40000  )

     Band symmetry, C_2v (mm2)  point group:

     e(  1 -  1) =     -4.83251  eV     1   --> A_1  D_1  S_1  
     e(  2 -  2) =      7.16017  eV     1   --> B_2  D_4  S_4  
     e(  3 -  3) =      8.04904  eV     1   --> A_1  D_1  S_1  
     e(  4 -  4) =     12.26466  eV     1   --> A_2  D_2  S_2  
     e(  5 -  5) =     23.15869  eV     1   --> B_1  D_3  S_3  
     e(  6 -  6) =     23.33698  eV     1   --> B_2  D_4  S_4  
     e(  7 -  7) =     25.35264  eV     1   --> A_1  D_1  S_1  
     e(  8 -  8) =     28.85370  eV     1   --> B_2  D_4  S_4  

 **************************************************************************

 **************************************************************************

                    xk=(   0.45000,   0.00000,   0.45000  )

     Band symmetry, C_2v (mm2)  point group:

     e(  1 -  1) =     -4.05334  eV     1   --> A_1  D_1  S_1  
     e(  2 -  2) =      6.24165  eV     1   --> B_2  D_4  S_4  
     e(  3 -  3) =      7.17456  eV     1   --> A_1  D_1  S_1  
     e(  4 -  4) =     11.73317  eV     1   --> A_2  D_2  S_2  
     e(  5 -  5) =     23.04116  eV     1   --> B_2  D_4  S_4  
     e(  6 -  6) =     23.92710  eV     1   --> B_1  D_3  S_3  
     e(  7 -  7) =     26.31637  eV     1   --> A_1  D_1  S_1  
     e(  8 -  8) =     28.93394  eV     1   --> B_2  D_4  S_4  

 **************************************************************************

 **************************************************************************

                    xk=(   0.50000,   0.00000,   0.50000  )

     Band symmetry, C_2v (mm2)  point group:

     e(  1 -  1) =     -3.19947  eV     1   --> A_1  D_1  S_1  
     e(  2 -  2) =      5.39066  eV     1   --> B_2  D_4  S_4  
     e(  3 -  3) =      6.36953  eV     1   --> A_1  D_1  S_1  
     e(  4 -  4) =     11.18022  eV     1   --> A_2  D_2  S_2  
     e(  5 -  5) =     22.60820  eV     1   --> B_2  D_4  S_4  
     e(  6 -  6) =     24.75998  eV     1   --> B_1  D_3  S_3  
     e(  7 -  7) =     27.32842  eV     1   --> A_1  D_1  S_1  
     e(  8 -  8) =     29.13108  eV     1   --> B_2  D_4  S_4  

 **************************************************************************

 **************************************************************************

                    xk=(   0.48750,   0.03750,   0.52500  )

     point group C_1 (1)    
     there are  1 classes
     the character table:

       E    
A      1.00

     the symmetry operations in each class and the name of the first element:

     E        1
                                                                 

     Band symmetry, C_1 (1)     point group:

     e(  1 -  1) =     -3.06964  eV     1   --> A              
     e(  2 -  2) =      5.03480  eV     1   --> A              
     e(  3 -  3) =      6.54047  eV     1   --> A              
     e(  4 -  4) =     11.08236  eV     1   --> A              
     e(  5 -  5) =     22.59466  eV     1   --> A              
     e(  6 -  6) =     24.78099  eV     1   --> A              
     e(  7 -  7) =     27.40051  eV     1   --> A              
     e(  8 -  8) =     29.18871  eV     1   --> A              

 **************************************************************************

 **************************************************************************

                    xk=(   0.47500,   0.07500,   0.55000  )

     Band symmetry, C_1 (1)     point group:

     e(  1 -  1) =     -2.90276  eV     1   --> A              
     e(  2 -  2) =      4.47008  eV     1   --> A              
     e(  3 -  3) =      6.94559  eV     1   --> A              
     e(  4 -  4) =     10.93146  eV     1   --> A              
     e(  5 -  5) =     22.66897  eV     1   --> A              
     e(  6 -  6) =     24.63628  eV     1   --> A              
     e(  7 -  7) =     27.38388  eV     1   --> A              
     e(  8 -  8) =     29.28078  eV     1   --> A              

 **************************************************************************

 **************************************************************************

                    xk=(   0.46250,   0.11250,   0.57500  )

     Band symmetry, C_1 (1)     point group:

     e(  1 -  1) =     -2.70024  eV     1   --> A              
     e(  2 -  2) =      3.88147  eV     1   --> A              
     e(  3 -  3) =      7.39699  eV     1   --> A              
     e(  4 -  4) =     10.73643  eV     1   --> A              
     e(  5 -  5) =     22.81014  eV     1   --> A              
     e(  6 -  6) =     24.36655  eV     1   --> A              
     e(  7 -  7) =     27.34273  eV     1   --> A              
     e(  8 -  8) =     29.35907  eV     1   --> A              

 **************************************************************************

 **************************************************************************

                    xk=(   0.45000,   0.15000,   0.60000  )

     Band symmetry, C_1 (1)     point group:

     e(  1 -  1) =     -2.46434  eV     1   --> A              
     e(  2 -  2) =      3.30881  eV     1   --> A              
     e(  3 -  3) =      7.84612  eV     1   --> A              
     e(  4 -  4) =     10.51183  eV     1   --> A              
     e(  5 -  5) =     22.95061  eV     1   --> A              
     e(  6 -  6) =     24.07859  eV     1   --> A              
     e(  7 -  7) =     27.31145  eV     1   --> A              
     e(  8 -  8) =     29.40008  eV     1   --> A              

 **************************************************************************

 **************************************************************************

                    xk=(   0.43750,   0.18750,   0.62500  )

     Band symmetry, C_1 (1)     point group:

     e(  1 -  1) =     -2.19879  eV     1   --> A              
     e(  2 -  2) =      2.76762  eV     1   --> A              
     e(  3 -  3) =      8.25918  eV     1   --> A              
     e(  4 -  4) =     10.27943  eV     1   --> A              
     e(  5 -  5) =     22.90861  eV     1   --> A              
     e(  6 -  6) =     24.00075  eV     1   --> A              
     e(  7 -  7) =     27.28324  eV     1   --> A              
     e(  8 -  8) =     29.41352  eV     1   --> A              

 **************************************************************************

 **************************************************************************

                    xk=(   0.42500,   0.22500,   0.65000  )

     Band symmetry, C_1 (1)     point group:

     e(  1 -  1) =     -1.91003  eV     1   --> A              
     e(  2 -  2) =      2.26966  eV     1   --> A              
     e(  3 -  3) =      8.58805  eV     1   --> A              
     e(  4 -  4) =     10.07994  eV     1   --> A              
     e(  5 -  5) =     22.62099  eV     1   --> A              
     e(  6 -  6) =     24.23646  eV     1   --> A              
     e(  7 -  7) =     27.23432  eV     1   --> A              
     e(  8 -  8) =     29.42847  eV     1   --> A              

 **************************************************************************

 **************************************************************************

                    xk=(   0.41250,   0.26250,   0.67500  )

     Band symmetry, C_1 (1)     point group:

     e(  1 -  1) =     -1.60980  eV     1   --> A              
     e(  2 -  2) =      1.82956  eV     1   --> A              
     e(  3 -  3) =      8.75249  eV     1   --> A              
     e(  4 -  4) =      9.98338  eV     1   --> A              
     e(  5 -  5) =     22.27722  eV     1   --> A              
     e(  6 -  6) =     24.62218  eV     1   --> A              
     e(  7 -  7) =     27.14150  eV     1   --> A              
     e(  8 -  8) =     29.47800  eV     1   --> A              

 **************************************************************************

 **************************************************************************

                    xk=(   0.40000,   0.30000,   0.70000  )

     Band symmetry, C_1 (1)     point group:

     e(  1 -  1) =     -1.32070  eV     1   --> A              
     e(  2 -  2) =      1.47125  eV     1   --> A              
     e(  3 -  3) =      8.70085  eV     1   --> A              
     e(  4 -  4) =     10.02920  eV     1   --> A              
     e(  5 -  5) =     21.99104  eV     1   --> A              
     e(  6 -  6) =     25.05057  eV     1   --> A              
     e(  7 -  7) =     27.00375  eV     1   --> A              
     e(  8 -  8) =     29.58283  eV     1   --> A              

 **************************************************************************

 **************************************************************************

                    xk=(   0.38750,   0.33750,   0.72500  )

     Band symmetry, C_1 (1)     point group:

     e(  1 -  1) =     -1.08505  eV     1   --> A              
     e(  2 -  2) =      1.23758  eV     1   --> A              
     e(  3 -  3) =      8.50339  eV     1   --> A              
     e(  4 -  4) =     10.13522  eV     1   --> A              
     e(  5 -  5) =     21.81473  eV     1   --> A              
     e(  6 -  6) =     25.43404  eV     1   --> A              
     e(  7 -  7) =     26.87044  eV     1   --> A              
     e(  8 -  8) =     29.74513  eV     1   --> A              

 **************************************************************************

 **************************************************************************

                    xk=(   0.37500,   0.37500,   0.75000  )

     point group C_s (m)    
     there are  2 classes
     the character table:

       E     s    
A'     1.00  1.00
A''    1.00 -1.00

     the symmetry operations in each class and the name of the first element:

     E        1
                                                                 
     s        2
                                                                 

     Band symmetry, C_s (m)     point group:

     e(  1 -  1) =     -0.96363  eV     1   --> A'             
     e(  2 -  2) =      1.18896  eV     1   --> A'             
     e(  3 -  3) =      8.24658  eV     1   --> A'             
     e(  4 -  4) =     10.20644  eV     1   --> A''            
     e(  5 -  5) =     21.77593  eV     1   --> A'             
     e(  6 -  6) =     25.61606  eV     1   --> A''            
     e(  7 -  7) =     26.88625  eV     1   --> A'             
     e(  8 -  8) =     29.94475  eV     1   --> A'             

 **************************************************************************

 **************************************************************************

                    xk=(   0.33750,   0.33750,   0.67500  )

     Band symmetry, C_s (m)     point group:

     e(  1 -  1) =     -1.70461  eV     1   --> A'             
     e(  2 -  2) =      1.73296  eV     1   --> A'             
     e(  3 -  3) =      9.07587  eV     1   --> A'             
     e(  4 -  4) =     10.16814  eV     1   --> A''            
     e(  5 -  5) =     21.71003  eV     1   --> A'             
     e(  6 -  6) =     25.50066  eV     1   --> A''            
     e(  7 -  7) =     26.41050  eV     1   --> A'             
     e(  8 -  8) =     29.29019  eV     1   --> A'             

 **************************************************************************

 **************************************************************************

                    xk=(   0.30000,   0.30000,   0.60000  )

     Band symmetry, C_s (m)     point group:

     e(  1 -  1) =     -2.85833  eV     1   --> A'             
     e(  2 -  2) =      2.94679  eV     1   --> A'             
     e(  3 -  3) =      9.92549  eV     1   --> A'             
     e(  4 -  4) =     10.27234  eV     1   --> A''            
     e(  5 -  5) =     21.68987  eV     1   --> A'             
     e(  6 -  6) =     25.28908  eV     1   --> A''            
     e(  7 -  7) =     25.88248  eV     1   --> A'             
     e(  8 -  8) =     28.73652  eV     1   --> A'             

 **************************************************************************

 **************************************************************************

                    xk=(   0.26250,   0.26250,   0.52500  )

     Band symmetry, C_s (m)     point group:

     e(  1 -  1) =     -3.97814  eV     1   --> A'             
     e(  2 -  2) =      4.38317  eV     1   --> A'             
     e(  3 -  3) =     10.52151  eV     1   --> A''            
     e(  4 -  4) =     10.76537  eV     1   --> A'             
     e(  5 -  5) =     21.65111  eV     1   --> A'             
     e(  6 -  6) =     24.97073  eV     1   --> A''            
     e(  7 -  7) =     25.30186  eV     1   --> A'             
     e(  8 -  8) =     28.44007  eV     1   --> A'             

 **************************************************************************

 **************************************************************************

                    xk=(   0.22500,   0.22500,   0.45000  )

     Band symmetry, C_s (m)     point group:

     e(  1 -  1) =     -4.98273  eV     1   --> A'             
     e(  2 -  2) =      5.95180  eV     1   --> A'             
     e(  3 -  3) =     10.91348  eV     1   --> A''            
     e(  4 -  4) =     11.56825  eV     1   --> A'             
     e(  5 -  5) =     21.52906  eV     1   --> A'             
     e(  6 -  6) =     24.51024  eV     1   --> A''            
     e(  7 -  7) =     24.66108  eV     1   --> A'             
     e(  8 -  8) =     28.46243  eV     1   --> A'             

 **************************************************************************

 **************************************************************************

                    xk=(   0.18750,   0.18750,   0.37500  )

     Band symmetry, C_s (m)     point group:

     e(  1 -  1) =     -5.84822  eV     1   --> A'             
     e(  2 -  2) =      7.61021  eV     1   --> A'             
     e(  3 -  3) =     11.43864  eV     1   --> A''            
     e(  4 -  4) =     12.31042  eV     1   --> A'             
     e(  5 -  5) =     21.30057  eV     1   --> A'             
     e(  6 -  6) =     23.87163  eV     1   --> A''            
     e(  7 -  7) =     23.94817  eV     1   --> A'             
     e(  8 -  8) =     28.74096  eV     1   --> A'             

 **************************************************************************

 **************************************************************************

                    xk=(   0.15000,   0.15000,   0.30000  )

     Band symmetry, C_s (m)     point group:

     e(  1 -  1) =     -6.56422  eV     1   --> A'             
     e(  2 -  2) =      9.31651  eV     1   --> A'             
     e(  3 -  3) =     12.07792  eV     1   --> A''            
     e(  4 -  4) =     12.97272  eV     1   --> A'             
     e(  5 -  5) =     20.99629  eV     1   --> A'             
     e(  6 -  6) =     23.05275  eV     1   --> A''            
     e(  7 -  7) =     23.15119  eV     1   --> A'             
     e(  8 -  8) =     29.06516  eV     1   --> A'             

 **************************************************************************

 **************************************************************************

                    xk=(   0.11250,   0.11250,   0.22500  )

     Band symmetry, C_s (m)     point group:

     e(  1 -  1) =     -7.12514  eV     1   --> A'             
     e(  2 -  2) =     11.01052  eV     1   --> A'             
     e(  3 -  3) =     12.79531  eV     1   --> A''            
     e(  4 -  4) =     13.53513  eV     1   --> A'             
     e(  5 -  5) =     20.67204  eV     1   --> A'             
     e(  6 -  6) =     22.11011  eV     1   --> A''            
     e(  7 -  7) =     22.26638  eV     1   --> A'             
     e(  8 -  8) =     29.21396  eV     1   --> A'             

 **************************************************************************

 **************************************************************************

                    xk=(   0.07500,   0.07500,   0.15000  )

     Band symmetry, C_s (m)     point group:

     e(  1 -  1) =     -7.52768  eV     1   --> A'             
     e(  2 -  2) =     12.58753  eV     1   --> A'             
     e(  3 -  3) =     13.51993  eV     1   --> A''            
     e(  4 -  4) =     13.97336  eV     1   --> A'             
     e(  5 -  5) =     20.38511  eV     1   --> A'             
     e(  6 -  6) =     21.16603  eV     1   --> A''            
     e(  7 -  7) =     21.33025  eV     1   --> A'             
     e(  8 -  8) =     29.17099  eV     1   --> A'             

 **************************************************************************

 **************************************************************************

                    xk=(   0.03750,   0.03750,   0.07500  )

     Band symmetry, C_s (m)     point group:

     e(  1 -  1) =     -7.76991  eV     1   --> A'             
     e(  2 -  2) =     13.83730  eV     1   --> A'             
     e(  3 -  3) =     14.11290  eV     1   --> A''            
     e(  4 -  4) =     14.25684  eV     1   --> A'             
     e(  5 -  5) =     20.18577  eV     1   --> A'             
     e(  6 -  6) =     20.41429  eV     1   --> A''            
     e(  7 -  7) =     20.49071  eV     1   --> A'             
     e(  8 -  8) =     29.07185  eV     1   --> A'             

 **************************************************************************

 **************************************************************************

                    xk=(   0.00000,   0.00000,   0.00000  )

     point group O_h (m-3m) 
     there are 10 classes
     the character table:

       E     8C3   3C2   6C4   6C2'  i     8S6   3s_h  6S4   6s_d 
A_1g   1.00  1.00  1.00  1.00  1.00  1.00  1.00  1.00  1.00  1.00
A_2g   1.00  1.00  1.00 -1.00 -1.00  1.00  1.00  1.00 -1.00 -1.00
E_g    2.00 -1.00  2.00  0.00  0.00  2.00 -1.00  2.00  0.00  0.00
T_1g   3.00  0.00 -1.00  1.00 -1.00  3.00  0.00 -1.00  1.00 -1.00
T_2g   3.00  0.00 -1.00 -1.00  1.00  3.00  0.00 -1.00 -1.00  1.00
A_1u   1.00  1.00  1.00  1.00  1.00 -1.00 -1.00 -1.00 -1.00 -1.00
A_2u   1.00  1.00  1.00 -1.00 -1.00 -1.00 -1.00 -1.00  1.00  1.00
E_u    2.00 -1.00  2.00  0.00  0.00 -2.00  1.00 -2.00  0.00  0.00
T_1u   3.00  0.00 -1.00  1.00 -1.00 -3.00  0.00  1.00 -1.00  1.00
T_2u   3.00  0.00 -1.00 -1.00  1.00 -3.00  0.00  1.00  1.00 -1.00

     the symmetry operations in each class and the name of the first element:

     E        1
                                                                 
     8C3     17   19   20   18   24   21   22   23
                                                                 
     3C2      2    4    3
                                                                 
     6C4      7    8   15   16   12   11
                                                                 
     6C2'     5    6   14   13   10    9
                                                                 
     i       25
                                                                 
     8S6     41   43   44   42   48   45   46   47
                                                                 
     3s_h    26   28   27
                                                                 
     6S4     31   32   39   40   36   35
                                                                 
     6s_d    29   30   38   37   34   33
                                                                 

     Band symmetry, O_h (m-3m)  point group:

     e(  1 -  1) =     -7.85076  eV     1   --> A_1g G_1   G_1+
     e(  2 -  4) =     14.35571  eV     3   --> T_2g G_25' G_5+
     e(  5 -  7) =     20.11402  eV     3   --> T_1u G_15  G_4-
     e(  8 -  8) =     29.02722  eV     1   --> A_2u G_2'  G_2-

 **************************************************************************

 **************************************************************************

                    xk=(   0.05000,   0.05000,   0.05000  )

     point group C_3v (3m)  
     there are  3 classes
     the character table:

       E     2C3   3s_v 
A_1    1.00  1.00  1.00
A_2    1.00  1.00 -1.00
E      2.00 -1.00  0.00

     the symmetry operations in each class and the name of the first element:

     E        1
                                                                 
     2C3      2    3
                                                                 
     3s_v     4    5    6
                                                                 

     Band symmetry, C_3v (3m)   point group:

     e(  1 -  1) =     -7.77889  eV     1   --> A_1  L_1       
     e(  2 -  2) =     13.85004  eV     1   --> A_1  L_1       
     e(  3 -  4) =     14.22420  eV     2   --> E    L_3       
     e(  5 -  6) =     20.28550  eV     2   --> E    L_3       
     e(  7 -  7) =     20.43993  eV     1   --> A_1  L_1       
     e(  8 -  8) =     29.06928  eV     1   --> A_1  L_1       

 **************************************************************************

 **************************************************************************

                    xk=(   0.10000,   0.10000,   0.10000  )

     Band symmetry, C_3v (3m)   point group:

     e(  1 -  1) =     -7.56354  eV     1   --> A_1  L_1       
     e(  2 -  2) =     12.61147  eV     1   --> A_1  L_1       
     e(  3 -  4) =     13.88202  eV     2   --> E    L_3       
     e(  5 -  6) =     20.73592  eV     2   --> E    L_3       
     e(  7 -  7) =     21.15272  eV     1   --> A_1  L_1       
     e(  8 -  8) =     29.19426  eV     1   --> A_1  L_1       

 **************************************************************************

 **************************************************************************

                    xk=(   0.15000,   0.15000,   0.15000  )

     Band symmetry, C_3v (3m)   point group:

     e(  1 -  1) =     -7.20557  eV     1   --> A_1  L_1       
     e(  2 -  2) =     11.02037  eV     1   --> A_1  L_1       
     e(  3 -  4) =     13.43159  eV     2   --> E    L_3       
     e(  5 -  6) =     21.32704  eV     2   --> E    L_3       
     e(  7 -  7) =     21.90586  eV     1   --> A_1  L_1       
     e(  8 -  8) =     29.39290  eV     1   --> A_1  L_1       

 **************************************************************************

 **************************************************************************

                    xk=(   0.20000,   0.20000,   0.20000  )

     Band symmetry, C_3v (3m)   point group:

     e(  1 -  1) =     -6.70654  eV     1   --> A_1  L_1       
     e(  2 -  2) =      9.28449  eV     1   --> A_1  L_1       
     e(  3 -  4) =     12.95773  eV     2   --> E    L_3       
     e(  5 -  6) =     21.92355  eV     2   --> E    L_3       
     e(  7 -  7) =     22.55283  eV     1   --> A_1  L_1       
     e(  8 -  8) =     29.64592  eV     1   --> A_1  L_1       

 **************************************************************************

 **************************************************************************

                    xk=(   0.25000,   0.25000,   0.25000  )

     Band symmetry, C_3v (3m)   point group:

     e(  1 -  1) =     -6.06905  eV     1   --> A_1  L_1       
     e(  2 -  2) =      7.50965  eV     1   --> A_1  L_1       
     e(  3 -  4) =     12.51311  eV     2   --> E    L_3       
     e(  5 -  6) =     22.42264  eV     2   --> E    L_3       
     e(  7 -  7) =     23.06095  eV     1   --> A_1  L_1       
     e(  8 -  8) =     29.92072  eV     1   --> A_1  L_1       

 **************************************************************************

 **************************************************************************

                    xk=(   0.30000,   0.30000,   0.30000  )

     Band symmetry, C_3v (3m)   point group:

     e(  1 -  1) =     -5.29769  eV     1   --> A_1  L_1       
     e(  2 -  2) =      5.75692  eV     1   --> A_1  L_1       
     e(  3 -  4) =     12.12755  eV     2   --> E    L_3       
     e(  5 -  6) =     22.76824  eV     2   --> E    L_3       
     e(  7 -  7) =     23.44067  eV     1   --> A_1  L_1       
     e(  8 -  8) =     30.17550  eV     1   --> A_1  L_1       

 **************************************************************************

 **************************************************************************

                    xk=(   0.35000,   0.35000,   0.35000  )

     Band symmetry, C_3v (3m)   point group:

     e(  1 -  1) =     -4.40097  eV     1   --> A_1  L_1       
     e(  2 -  2) =      4.06955  eV     1   --> A_1  L_1       
     e(  3 -  4) =     11.81698  eV     2   --> E    L_3       
     e(  5 -  6) =     22.96288  eV     2   --> E    L_3       
     e(  7 -  7) =     23.71183  eV     1   --> A_1  L_1       
     e(  8 -  8) =     30.37164  eV     1   --> A_1  L_1       

 **************************************************************************

 **************************************************************************

                    xk=(   0.40000,   0.40000,   0.40000  )

     Band symmetry, C_3v (3m)   point group:

     e(  1 -  1) =     -3.39954  eV     1   --> A_1  L_1       
     e(  2 -  2) =      2.49021  eV     1   --> A_1  L_1       
     e(  3 -  4) =     11.59138  eV     2   --> E    L_3       
     e(  5 -  6) =     23.04615  eV     2   --> E    L_3       
     e(  7 -  7) =     23.89464  eV     1   --> A_1  L_1       
     e(  8 -  8) =     30.49289  eV     1   --> A_1  L_1       

 **************************************************************************

 **************************************************************************

                    xk=(   0.45000,   0.45000,   0.45000  )

     Band symmetry, C_3v (3m)   point group:

     e(  1 -  1) =     -2.36750  eV     1   --> A_1  L_1       
     e(  2 -  2) =      1.10642  eV     1   --> A_1  L_1       
     e(  3 -  4) =     11.45455  eV     2   --> E    L_3       
     e(  5 -  6) =     23.07062  eV     2   --> E    L_3       
     e(  7 -  7) =     24.00015  eV     1   --> A_1  L_1       
     e(  8 -  8) =     30.55166  eV     1   --> A_1  L_1       

 **************************************************************************

 **************************************************************************

                    xk=(   0.50000,   0.50000,   0.50000  )

     zone border point and non-symmorphic group 
     symmetry decomposition not available

 **************************************************************************

 **************************************************************************

                    xk=(   0.47500,   0.47500,   0.47500  )

     point group C_3v (3m)  
     there are  3 classes
     the character table:

       E     2C3   3s_v 
A_1    1.00  1.00  1.00
A_2    1.00  1.00 -1.00
E      2.00 -1.00  0.00

     the symmetry operations in each class and the name of the first element:

     E        1
                                                                 
     2C3      2    3
                                                                 
     3s_v     4    5    6
                                                                 

     Band symmetry, C_3v (3m)   point group:

     e(  1 -  1) =     -1.93669  eV     1   --> A_1  L_1       
     e(  2 -  2) =      0.58711  eV     1   --> A_1  L_1       
     e(  3 -  4) =     11.42015  eV     2   --> E    L_3       
     e(  5 -  6) =     23.07364  eV     2   --> E    L_3       
     e(  7 -  7) =     24.02608  eV     1   --> A_1  L_1       
     e(  8 -  8) =     30.56361  eV     1   --> A_1  L_1       

 **************************************************************************

 **************************************************************************

                    xk=(   0.45000,   0.45000,   0.45000  )

     Band symmetry, C_3v (3m)   point group:

     e(  1 -  1) =     -2.36750  eV     1   --> A_1  L_1       
     e(  2 -  2) =      1.10642  eV     1   --> A_1  L_1       
     e(  3 -  4) =     11.45455  eV     2   --> E    L_3       
     e(  5 -  6) =     23.07062  eV     2   --> E    L_3       
     e(  7 -  7) =     24.00015  eV     1   --> A_1  L_1       
     e(  8 -  8) =     30.55166  eV     1   --> A_1  L_1       

 **************************************************************************

 **************************************************************************

                    xk=(   0.42500,   0.42500,   0.42500  )

     Band symmetry, C_3v (3m)   point group:

     e(  1 -  1) =     -2.87693  eV     1   --> A_1  L_1       
     e(  2 -  2) =      1.76286  eV     1   --> A_1  L_1       
     e(  3 -  4) =     11.51160  eV     2   --> E    L_3       
     e(  5 -  6) =     23.06303  eV     2   --> E    L_3       
     e(  7 -  7) =     23.95654  eV     1   --> A_1  L_1       
     e(  8 -  8) =     30.52813  eV     1   --> A_1  L_1       

 **************************************************************************

 **************************************************************************

                    xk=(   0.40000,   0.40000,   0.40000  )

     Band symmetry, C_3v (3m)   point group:

     e(  1 -  1) =     -3.39954  eV     1   --> A_1  L_1       
     e(  2 -  2) =      2.49021  eV     1   --> A_1  L_1       
     e(  3 -  4) =     11.59138  eV     2   --> E    L_3       
     e(  5 -  6) =     23.04615  eV     2   --> E    L_3       
     e(  7 -  7) =     23.89464  eV     1   --> A_1  L_1       
     e(  8 -  8) =     30.49289  eV     1   --> A_1  L_1       

 **************************************************************************

 **************************************************************************

                    xk=(   0.37500,   0.37500,   0.37500  )

     Band symmetry, C_3v (3m)   point group:

     e(  1 -  1) =     -3.91104  eV     1   --> A_1  L_1       
     e(  2 -  2) =      3.26304  eV     1   --> A_1  L_1       
     e(  3 -  4) =     11.69342  eV     2   --> E    L_3       
     e(  5 -  6) =     23.01472  eV     2   --> E    L_3       
     e(  7 -  7) =     23.81348  eV     1   --> A_1  L_1       
     e(  8 -  8) =     30.44133  eV     1   --> A_1  L_1       

 **************************************************************************

 **************************************************************************

                    xk=(   0.35000,   0.35000,   0.35000  )

     Band symmetry, C_3v (3m)   point group:

     e(  1 -  1) =     -4.40097  eV     1   --> A_1  L_1       
     e(  2 -  2) =      4.06955  eV     1   --> A_1  L_1       
     e(  3 -  4) =     11.81698  eV     2   --> E    L_3       
     e(  5 -  6) =     22.96288  eV     2   --> E    L_3       
     e(  7 -  7) =     23.71183  eV     1   --> A_1  L_1       
     e(  8 -  8) =     30.37164  eV     1   --> A_1  L_1       

 **************************************************************************

 **************************************************************************

                    xk=(   0.32500,   0.32500,   0.32500  )

     Band symmetry, C_3v (3m)   point group:

     e(  1 -  1) =     -4.86419  eV     1   --> A_1  L_1       
     e(  2 -  2) =      4.90270  eV     1   --> A_1  L_1       
     e(  3 -  4) =     11.96217  eV     2   --> E    L_3       
     e(  5 -  6) =     22.88244  eV     2   --> E    L_3       
     e(  7 -  7) =     23.58820  eV     1   --> A_1  L_1       
     e(  8 -  8) =     30.28220  eV     1   --> A_1  L_1       

 **************************************************************************

 **************************************************************************

                    xk=(   0.30000,   0.30000,   0.30000  )

     Band symmetry, C_3v (3m)   point group:

     e(  1 -  1) =     -5.29769  eV     1   --> A_1  L_1       
     e(  2 -  2) =      5.75692  eV     1   --> A_1  L_1       
     e(  3 -  4) =     12.12755  eV     2   --> E    L_3       
     e(  5 -  6) =     22.76824  eV     2   --> E    L_3       
     e(  7 -  7) =     23.44067  eV     1   --> A_1  L_1       
     e(  8 -  8) =     30.17550  eV     1   --> A_1  L_1       

 **************************************************************************

 **************************************************************************

                    xk=(   0.27500,   0.27500,   0.27500  )

     Band symmetry, C_3v (3m)   point group:

     e(  1 -  1) =     -5.69972  eV     1   --> A_1  L_1       
     e(  2 -  2) =      6.62752  eV     1   --> A_1  L_1       
     e(  3 -  4) =     12.31168  eV     2   --> E    L_3       
     e(  5 -  6) =     22.61559  eV     2   --> E    L_3       
     e(  7 -  7) =     23.26558  eV     1   --> A_1  L_1       
     e(  8 -  8) =     30.05333  eV     1   --> A_1  L_1       

 **************************************************************************

 **************************************************************************

                    xk=(   0.25000,   0.25000,   0.25000  )

     Band symmetry, C_3v (3m)   point group:

     e(  1 -  1) =     -6.06905  eV     1   --> A_1  L_1       
     e(  2 -  2) =      7.50965  eV     1   --> A_1  L_1       
     e(  3 -  4) =     12.51311  eV     2   --> E    L_3       
     e(  5 -  6) =     22.42264  eV     2   --> E    L_3       
     e(  7 -  7) =     23.06095  eV     1   --> A_1  L_1       
     e(  8 -  8) =     29.92072  eV     1   --> A_1  L_1       

 **************************************************************************

     BANDS        :      0.38s CPU      0.41s WALL


   This run was terminated on:  14:26:12   6Oct2024            

=------------------------------------------------------------------------------=
   JOB DONE.
=------------------------------------------------------------------------------=
