
     Program BANDS v.7.3.1 starts on  5Oct2024 at 23:57:15 

     This program is part of the open-source Quantum ESPRESSO suite
     for quantum simulation of materials; please cite
         "P. Giannozzi et al., J. Phys.:Condens. Matter 21 395502 (2009);
         "P. Giannozzi et al., J. Phys.:Condens. Matter 29 465901 (2017);
         "P. Giannozzi et al., J. Chem. Phys. 152 154105 (2020);
          URL http://www.quantum-espresso.org", 
     in publications or presentations arising from this work. More details at
     http://www.quantum-espresso.org/quote

     Parallel version (MPI & OpenMP), running on       2 processor cores
     Number of MPI processes:                 2
     Threads/MPI process:                     1

     MPI processes distributed on     1 nodes
     R & G space division:  proc/nbgrp/npool/nimage =       2
     508677 MiB available memory on the printing compute node when the environment starts


     Reading xml data from directory:

     ./diamond.save/

     IMPORTANT: XC functional enforced from input :
     Exchange-correlation= PBE
                           (   1   4   3   4   0   0   0)
     Any further DFT definition will be discarded
     Please, verify this is what you really want


     Parallelization info
     --------------------
     sticks:   dense  smooth     PW     G-vecs:    dense   smooth      PW
     Min         156     126     42                 1847     1318     264
     Max         157     127     43                 1848     1319     267
     Sum         313     253     85                 3695     2637     531

     Using Slab Decomposition

     Reading collected, re-writing distributed wavefunctions
     high-symmetry point:  0.0000 0.0000 0.0000   x coordinate   0.0000
     high-symmetry point:  0.5000 0.0000 0.5000   x coordinate   0.7071
     high-symmetry point:  0.3750 0.3750 0.7500   x coordinate   1.1748
     high-symmetry point:  0.0000 0.0000 0.0000   x coordinate   2.0934
     high-symmetry point:  0.5000 0.5000 0.5000   x coordinate   2.9594
     high-symmetry point:  0.2500 0.2500 0.2500   x coordinate   3.3924

     Plottable bands (eV) written to file bands.dat.gnu
     Bands written to file bands.dat

 **************************************************************************

                    xk=(   0.00000,   0.00000,   0.00000  )

     point group O_h (m-3m) 
     there are 10 classes
     the character table:

       E     8C3   3C2   6C4   6C2'  i     8S6   3s_h  6S4   6s_d 
A_1g   1.00  1.00  1.00  1.00  1.00  1.00  1.00  1.00  1.00  1.00
A_2g   1.00  1.00  1.00 -1.00 -1.00  1.00  1.00  1.00 -1.00 -1.00
E_g    2.00 -1.00  2.00  0.00  0.00  2.00 -1.00  2.00  0.00  0.00
T_1g   3.00  0.00 -1.00  1.00 -1.00  3.00  0.00 -1.00  1.00 -1.00
T_2g   3.00  0.00 -1.00 -1.00  1.00  3.00  0.00 -1.00 -1.00  1.00
A_1u   1.00  1.00  1.00  1.00  1.00 -1.00 -1.00 -1.00 -1.00 -1.00
A_2u   1.00  1.00  1.00 -1.00 -1.00 -1.00 -1.00 -1.00  1.00  1.00
E_u    2.00 -1.00  2.00  0.00  0.00 -2.00  1.00 -2.00  0.00  0.00
T_1u   3.00  0.00 -1.00  1.00 -1.00 -3.00  0.00  1.00 -1.00  1.00
T_2u   3.00  0.00 -1.00 -1.00  1.00 -3.00  0.00  1.00  1.00 -1.00

     the symmetry operations in each class and the name of the first element:

     E        1
                                                                 
     8C3     17   19   20   18   24   21   22   23
                                                                 
     3C2      2    4    3
                                                                 
     6C4      7    8   15   16   12   11
                                                                 
     6C2'     5    6   14   13   10    9
                                                                 
     i       25
                                                                 
     8S6     41   43   44   42   48   45   46   47
                                                                 
     3s_h    26   28   27
                                                                 
     6S4     31   32   39   40   36   35
                                                                 
     6s_d    29   30   38   37   34   33
                                                                 

     Band symmetry, O_h (m-3m)  point group:

     e(  1 -  1) =     -8.13477  eV     1   --> A_1g G_1   G_1+
     e(  2 -  4) =     13.47105  eV     3   --> T_2g G_25' G_5+
     e(  5 -  7) =     19.12279  eV     3   --> T_1u G_15  G_4-
     e(  8 -  8) =     26.67579  eV     1   --> A_2u G_2'  G_2-

 **************************************************************************

 **************************************************************************

                    xk=(   0.05000,   0.00000,   0.05000  )

     point group C_2v (mm2) 
     there are  4 classes
     the character table:

       E     C2    s_v   s_v' 
A_1    1.00  1.00  1.00  1.00
A_2    1.00  1.00 -1.00 -1.00
B_1    1.00 -1.00  1.00 -1.00
B_2    1.00 -1.00 -1.00  1.00

     the symmetry operations in each class and the name of the first element:

     E        1
                                                                 
     C2       2
                                                                 
     s_v      3
                                                                 
     s_v'     4
                                                                 

     Band symmetry, C_2v (mm2)  point group:

     e(  1 -  1) =     -8.08828  eV     1   --> A_1  D_1  S_1  
     e(  2 -  2) =     13.19357  eV     1   --> B_2  D_4  S_4  
     e(  3 -  3) =     13.27569  eV     1   --> A_1  D_1  S_1  
     e(  4 -  4) =     13.44288  eV     1   --> A_2  D_2  S_2  
     e(  5 -  5) =     19.17037  eV     1   --> B_1  D_3  S_3  
     e(  6 -  6) =     19.27183  eV     1   --> A_1  D_1  S_1  
     e(  7 -  7) =     19.35090  eV     1   --> B_2  D_4  S_4  
     e(  8 -  8) =     26.72112  eV     1   --> B_2  D_4  S_4  

 **************************************************************************

 **************************************************************************

                    xk=(   0.10000,   0.00000,   0.10000  )

     Band symmetry, C_2v (mm2)  point group:

     e(  1 -  1) =     -7.94892  eV     1   --> A_1  D_1  S_1  
     e(  2 -  2) =     12.48303  eV     1   --> B_2  D_4  S_4  
     e(  3 -  3) =     12.74725  eV     1   --> A_1  D_1  S_1  
     e(  4 -  4) =     13.35702  eV     1   --> A_2  D_2  S_2  
     e(  5 -  5) =     19.31283  eV     1   --> B_1  D_3  S_3  
     e(  6 -  6) =     19.66918  eV     1   --> A_1  D_1  S_1  
     e(  7 -  7) =     19.90705  eV     1   --> B_2  D_4  S_4  
     e(  8 -  8) =     26.84678  eV     1   --> B_2  D_4  S_4  

 **************************************************************************

 **************************************************************************

                    xk=(   0.15000,   0.00000,   0.15000  )

     Band symmetry, C_2v (mm2)  point group:

     e(  1 -  1) =     -7.71837  eV     1   --> A_1  D_1  S_1  
     e(  2 -  2) =     11.57075  eV     1   --> B_2  D_4  S_4  
     e(  3 -  3) =     11.99929  eV     1   --> A_1  D_1  S_1  
     e(  4 -  4) =     13.21872  eV     1   --> A_2  D_2  S_2  
     e(  5 -  5) =     19.54937  eV     1   --> B_1  D_3  S_3  
     e(  6 -  6) =     20.21567  eV     1   --> A_1  D_1  S_1  
     e(  7 -  7) =     20.57749  eV     1   --> B_2  D_4  S_4  
     e(  8 -  8) =     27.01965  eV     1   --> B_2  D_4  S_4  

 **************************************************************************

 **************************************************************************

                    xk=(   0.20000,   0.00000,   0.20000  )

     Band symmetry, C_2v (mm2)  point group:

     e(  1 -  1) =     -7.39499  eV     1   --> A_1  D_1  S_1  
     e(  2 -  2) =     10.53576  eV     1   --> B_2  D_4  S_4  
     e(  3 -  3) =     11.12681  eV     1   --> A_1  D_1  S_1  
     e(  4 -  4) =     13.00584  eV     1   --> A_2  D_2  S_2  
     e(  5 -  5) =     19.87955  eV     1   --> B_1  D_3  S_3  
     e(  6 -  6) =     20.89341  eV     1   --> A_1  D_1  S_1  
     e(  7 -  7) =     21.22637  eV     1   --> B_2  D_4  S_4  
     e(  8 -  8) =     27.18445  eV     1   --> B_2  D_4  S_4  

 **************************************************************************

 **************************************************************************

                    xk=(   0.25000,   0.00000,   0.25000  )

     Band symmetry, C_2v (mm2)  point group:

     e(  1 -  1) =     -6.98092  eV     1   --> A_1  D_1  S_1  
     e(  2 -  2) =      9.48133  eV     1   --> B_2  D_4  S_4  
     e(  3 -  3) =     10.21021  eV     1   --> A_1  D_1  S_1  
     e(  4 -  4) =     12.75794  eV     1   --> A_2  D_2  S_2  
     e(  5 -  5) =     20.29932  eV     1   --> B_1  D_3  S_3  
     e(  6 -  6) =     21.63082  eV     1   --> A_1  D_1  S_1  
     e(  7 -  7) =     21.74727  eV     1   --> B_2  D_4  S_4  
     e(  8 -  8) =     27.27531  eV     1   --> B_2  D_4  S_4  

 **************************************************************************

 **************************************************************************

                    xk=(   0.30000,   0.00000,   0.30000  )

     Band symmetry, C_2v (mm2)  point group:

     e(  1 -  1) =     -6.47897  eV     1   --> A_1  D_1  S_1  
     e(  2 -  2) =      8.42046  eV     1   --> B_2  D_4  S_4  
     e(  3 -  3) =      9.25783  eV     1   --> A_1  D_1  S_1  
     e(  4 -  4) =     12.40434  eV     1   --> A_2  D_2  S_2  
     e(  5 -  5) =     20.80676  eV     1   --> B_1  D_3  S_3  
     e(  6 -  6) =     22.07182  eV     1   --> B_2  D_4  S_4  
     e(  7 -  7) =     22.38555  eV     1   --> A_1  D_1  S_1  
     e(  8 -  8) =     27.25705  eV     1   --> B_2  D_4  S_4  

 **************************************************************************

 **************************************************************************

                    xk=(   0.35000,   0.00000,   0.35000  )

     Band symmetry, C_2v (mm2)  point group:

     e(  1 -  1) =     -5.89145  eV     1   --> A_1  D_1  S_1  
     e(  2 -  2) =      7.39558  eV     1   --> B_2  D_4  S_4  
     e(  3 -  3) =      8.32356  eV     1   --> A_1  D_1  S_1  
     e(  4 -  4) =     11.97537  eV     1   --> A_2  D_2  S_2  
     e(  5 -  5) =     21.38772  eV     1   --> B_1  D_3  S_3  
     e(  6 -  6) =     22.19116  eV     1   --> B_2  D_4  S_4  
     e(  7 -  7) =     23.19029  eV     1   --> A_1  D_1  S_1  
     e(  8 -  8) =     27.15927  eV     1   --> B_2  D_4  S_4  

 **************************************************************************

 **************************************************************************

                    xk=(   0.40000,   0.00000,   0.40000  )

     Band symmetry, C_2v (mm2)  point group:

     e(  1 -  1) =     -5.21821  eV     1   --> A_1  D_1  S_1  
     e(  2 -  2) =      6.43172  eV     1   --> B_2  D_4  S_4  
     e(  3 -  3) =      7.43245  eV     1   --> A_1  D_1  S_1  
     e(  4 -  4) =     11.50567  eV     1   --> A_2  D_2  S_2  
     e(  5 -  5) =     22.06170  eV     1   --> B_1  D_3  S_3  
     e(  6 -  6) =     22.10475  eV     1   --> B_2  D_4  S_4  
     e(  7 -  7) =     24.06092  eV     1   --> A_1  D_1  S_1  
     e(  8 -  8) =     27.14820  eV     1   --> B_2  D_4  S_4  

 **************************************************************************

 **************************************************************************

                    xk=(   0.45000,   0.00000,   0.45000  )

     Band symmetry, C_2v (mm2)  point group:

     e(  1 -  1) =     -4.46627  eV     1   --> A_1  D_1  S_1  
     e(  2 -  2) =      5.52878  eV     1   --> B_2  D_4  S_4  
     e(  3 -  3) =      6.58925  eV     1   --> A_1  D_1  S_1  
     e(  4 -  4) =     10.99862  eV     1   --> A_2  D_2  S_2  
     e(  5 -  5) =     21.83044  eV     1   --> B_2  D_4  S_4  
     e(  6 -  6) =     22.80272  eV     1   --> B_1  D_3  S_3  
     e(  7 -  7) =     24.97614  eV     1   --> A_1  D_1  S_1  
     e(  8 -  8) =     27.23967  eV     1   --> B_2  D_4  S_4  

 **************************************************************************

 **************************************************************************

                    xk=(   0.50000,   0.00000,   0.50000  )

     Band symmetry, C_2v (mm2)  point group:

     e(  1 -  1) =     -3.64789  eV     1   --> A_1  D_1  S_1  
     e(  2 -  2) =      4.68755  eV     1   --> B_2  D_4  S_4  
     e(  3 -  3) =      5.81271  eV     1   --> A_1  D_1  S_1  
     e(  4 -  4) =     10.45003  eV     1   --> A_2  D_2  S_2  
     e(  5 -  5) =     21.41932  eV     1   --> B_2  D_4  S_4  
     e(  6 -  6) =     23.60728  eV     1   --> B_1  D_3  S_3  
     e(  7 -  7) =     25.93677  eV     1   --> A_1  D_1  S_1  
     e(  8 -  8) =     27.40776  eV     1   --> B_2  D_4  S_4  

 **************************************************************************

 **************************************************************************

                    xk=(   0.48750,   0.03750,   0.52500  )

     point group C_1 (1)    
     there are  1 classes
     the character table:

       E    
A      1.00

     the symmetry operations in each class and the name of the first element:

     E        1
                                                                 

     Band symmetry, C_1 (1)     point group:

     e(  1 -  1) =     -3.52320  eV     1   --> A              
     e(  2 -  2) =      4.37157  eV     1   --> A              
     e(  3 -  3) =      5.95139  eV     1   --> A              
     e(  4 -  4) =     10.35534  eV     1   --> A              
     e(  5 -  5) =     21.41006  eV     1   --> A              
     e(  6 -  6) =     23.62801  eV     1   --> A              
     e(  7 -  7) =     25.97284  eV     1   --> A              
     e(  8 -  8) =     27.50078  eV     1   --> A              

 **************************************************************************

 **************************************************************************

                    xk=(   0.47500,   0.07500,   0.55000  )

     Band symmetry, C_1 (1)     point group:

     e(  1 -  1) =     -3.36486  eV     1   --> A              
     e(  2 -  2) =      3.84674  eV     1   --> A              
     e(  3 -  3) =      6.32392  eV     1   --> A              
     e(  4 -  4) =     10.21518  eV     1   --> A              
     e(  5 -  5) =     21.49290  eV     1   --> A              
     e(  6 -  6) =     23.46955  eV     1   --> A              
     e(  7 -  7) =     25.90059  eV     1   --> A              
     e(  8 -  8) =     27.68288  eV     1   --> A              

 **************************************************************************

 **************************************************************************

                    xk=(   0.46250,   0.11250,   0.57500  )

     Band symmetry, C_1 (1)     point group:

     e(  1 -  1) =     -3.17392  eV     1   --> A              
     e(  2 -  2) =      3.29050  eV     1   --> A              
     e(  3 -  3) =      6.75520  eV     1   --> A              
     e(  4 -  4) =     10.03011  eV     1   --> A              
     e(  5 -  5) =     21.65483  eV     1   --> A              
     e(  6 -  6) =     23.16722  eV     1   --> A              
     e(  7 -  7) =     25.83933  eV     1   --> A              
     e(  8 -  8) =     27.84800  eV     1   --> A              

 **************************************************************************

 **************************************************************************

                    xk=(   0.45000,   0.15000,   0.60000  )

     Band symmetry, C_1 (1)     point group:

     e(  1 -  1) =     -2.95051  eV     1   --> A              
     e(  2 -  2) =      2.74491  eV     1   --> A              
     e(  3 -  3) =      7.18175  eV     1   --> A              
     e(  4 -  4) =      9.80742  eV     1   --> A              
     e(  5 -  5) =     21.84224  eV     1   --> A              
     e(  6 -  6) =     22.81290  eV     1   --> A              
     e(  7 -  7) =     25.79366  eV     1   --> A              
     e(  8 -  8) =     27.93304  eV     1   --> A              

 **************************************************************************

 **************************************************************************

                    xk=(   0.43750,   0.18750,   0.62500  )

     Band symmetry, C_1 (1)     point group:

     e(  1 -  1) =     -2.70301  eV     1   --> A              
     e(  2 -  2) =      2.23408  eV     1   --> A              
     e(  3 -  3) =      7.58201  eV     1   --> A              
     e(  4 -  4) =      9.58990  eV     1   --> A              
     e(  5 -  5) =     21.85996  eV     1   --> A              
     e(  6 -  6) =     22.66887  eV     1   --> A              
     e(  7 -  7) =     25.77235  eV     1   --> A              
     e(  8 -  8) =     27.99969  eV     1   --> A              

 **************************************************************************

 **************************************************************************

                    xk=(   0.42500,   0.22500,   0.65000  )

     Band symmetry, C_1 (1)     point group:

     e(  1 -  1) =     -2.43384  eV     1   --> A              
     e(  2 -  2) =      1.76666  eV     1   --> A              
     e(  3 -  3) =      7.89575  eV     1   --> A              
     e(  4 -  4) =      9.40147  eV     1   --> A              
     e(  5 -  5) =     21.55030  eV     1   --> A              
     e(  6 -  6) =     22.91820  eV     1   --> A              
     e(  7 -  7) =     25.72301  eV     1   --> A              
     e(  8 -  8) =     28.05008  eV     1   --> A              

 **************************************************************************

 **************************************************************************

                    xk=(   0.41250,   0.26250,   0.67500  )

     Band symmetry, C_1 (1)     point group:

     e(  1 -  1) =     -2.15856  eV     1   --> A              
     e(  2 -  2) =      1.35733  eV     1   --> A              
     e(  3 -  3) =      8.04045  eV     1   --> A              
     e(  4 -  4) =      9.30475  eV     1   --> A              
     e(  5 -  5) =     21.18096  eV     1   --> A              
     e(  6 -  6) =     23.32255  eV     1   --> A              
     e(  7 -  7) =     25.62100  eV     1   --> A              
     e(  8 -  8) =     28.11079  eV     1   --> A              

 **************************************************************************

 **************************************************************************

                    xk=(   0.40000,   0.30000,   0.70000  )

     Band symmetry, C_1 (1)     point group:

     e(  1 -  1) =     -1.89942  eV     1   --> A              
     e(  2 -  2) =      1.03016  eV     1   --> A              
     e(  3 -  3) =      7.98859  eV     1   --> A              
     e(  4 -  4) =      9.34738  eV     1   --> A              
     e(  5 -  5) =     20.88199  eV     1   --> A              
     e(  6 -  6) =     23.77576  eV     1   --> A              
     e(  7 -  7) =     25.46584  eV     1   --> A              
     e(  8 -  8) =     28.22085  eV     1   --> A              

 **************************************************************************

 **************************************************************************

                    xk=(   0.38750,   0.33750,   0.72500  )

     Band symmetry, C_1 (1)     point group:

     e(  1 -  1) =     -1.69188  eV     1   --> A              
     e(  2 -  2) =      0.83087  eV     1   --> A              
     e(  3 -  3) =      7.80292  eV     1   --> A              
     e(  4 -  4) =      9.44830  eV     1   --> A              
     e(  5 -  5) =     20.70155  eV     1   --> A              
     e(  6 -  6) =     24.22772  eV     1   --> A              
     e(  7 -  7) =     25.28605  eV     1   --> A              
     e(  8 -  8) =     28.38236  eV     1   --> A              

 **************************************************************************

 **************************************************************************

                    xk=(   0.37500,   0.37500,   0.75000  )

     point group C_s (m)    
     there are  2 classes
     the character table:

       E     s    
A'     1.00  1.00
A''    1.00 -1.00

     the symmetry operations in each class and the name of the first element:

     E        1
                                                                 
     s        2
                                                                 

     Band symmetry, C_s (m)     point group:

     e(  1 -  1) =     -1.58490  eV     1   --> A'             
     e(  2 -  2) =      0.79596  eV     1   --> A'             
     e(  3 -  3) =      7.55284  eV     1   --> A'             
     e(  4 -  4) =      9.51600  eV     1   --> A''            
     e(  5 -  5) =     20.65645  eV     1   --> A'             
     e(  6 -  6) =     24.45686  eV     1   --> A''            
     e(  7 -  7) =     25.24078  eV     1   --> A'             
     e(  8 -  8) =     28.56853  eV     1   --> A'             

 **************************************************************************

 **************************************************************************

                    xk=(   0.33750,   0.33750,   0.67500  )

     Band symmetry, C_s (m)     point group:

     e(  1 -  1) =     -2.25149  eV     1   --> A'             
     e(  2 -  2) =      1.26910  eV     1   --> A'             
     e(  3 -  3) =      8.35690  eV     1   --> A'             
     e(  4 -  4) =      9.47912  eV     1   --> A''            
     e(  5 -  5) =     20.59965  eV     1   --> A'             
     e(  6 -  6) =     24.36836  eV     1   --> A''            
     e(  7 -  7) =     24.78147  eV     1   --> A'             
     e(  8 -  8) =     27.94125  eV     1   --> A'             

 **************************************************************************

 **************************************************************************

                    xk=(   0.30000,   0.30000,   0.60000  )

     Band symmetry, C_s (m)     point group:

     e(  1 -  1) =     -3.33182  eV     1   --> A'             
     e(  2 -  2) =      2.40771  eV     1   --> A'             
     e(  3 -  3) =      9.17655  eV     1   --> A'             
     e(  4 -  4) =      9.57804  eV     1   --> A''            
     e(  5 -  5) =     20.58063  eV     1   --> A'             
     e(  6 -  6) =     24.14013  eV     1   --> A''            
     e(  7 -  7) =     24.27716  eV     1   --> A'             
     e(  8 -  8) =     27.37750  eV     1   --> A'             

 **************************************************************************

 **************************************************************************

                    xk=(   0.26250,   0.26250,   0.52500  )

     Band symmetry, C_s (m)     point group:

     e(  1 -  1) =     -4.39827  eV     1   --> A'             
     e(  2 -  2) =      3.78835  eV     1   --> A'             
     e(  3 -  3) =      9.82248  eV     1   --> A''            
     e(  4 -  4) =      9.99143  eV     1   --> A'             
     e(  5 -  5) =     20.53675  eV     1   --> A'             
     e(  6 -  6) =     23.75240  eV     1   --> A'             
     e(  7 -  7) =     23.82172  eV     1   --> A''            
     e(  8 -  8) =     27.04584  eV     1   --> A'             

 **************************************************************************

 **************************************************************************

                    xk=(   0.22500,   0.22500,   0.45000  )

     Band symmetry, C_s (m)     point group:

     e(  1 -  1) =     -5.36587  eV     1   --> A'             
     e(  2 -  2) =      5.31086  eV     1   --> A'             
     e(  3 -  3) =     10.20435  eV     1   --> A''            
     e(  4 -  4) =     10.77208  eV     1   --> A'             
     e(  5 -  5) =     20.42895  eV     1   --> A'             
     e(  6 -  6) =     23.19094  eV     1   --> A'             
     e(  7 -  7) =     23.37675  eV     1   --> A''            
     e(  8 -  8) =     27.00245  eV     1   --> A'             

 **************************************************************************

 **************************************************************************

                    xk=(   0.18750,   0.18750,   0.37500  )

     Band symmetry, C_s (m)     point group:

     e(  1 -  1) =     -6.20053  eV     1   --> A'             
     e(  2 -  2) =      6.92457  eV     1   --> A'             
     e(  3 -  3) =     10.70762  eV     1   --> A''            
     e(  4 -  4) =     11.49878  eV     1   --> A'             
     e(  5 -  5) =     20.20734  eV     1   --> A'             
     e(  6 -  6) =     22.57075  eV     1   --> A'             
     e(  7 -  7) =     22.75505  eV     1   --> A''            
     e(  8 -  8) =     27.14913  eV     1   --> A'             

 **************************************************************************

 **************************************************************************

                    xk=(   0.15000,   0.15000,   0.30000  )

     Band symmetry, C_s (m)     point group:

     e(  1 -  1) =     -6.88949  eV     1   --> A'             
     e(  2 -  2) =      8.59581  eV     1   --> A'             
     e(  3 -  3) =     11.32750  eV     1   --> A''            
     e(  4 -  4) =     12.15646  eV     1   --> A'             
     e(  5 -  5) =     19.93970  eV     1   --> A'             
     e(  6 -  6) =     21.89075  eV     1   --> A'             
     e(  7 -  7) =     21.94529  eV     1   --> A''            
     e(  8 -  8) =     27.27026  eV     1   --> A'             

 **************************************************************************

 **************************************************************************

                    xk=(   0.11250,   0.11250,   0.22500  )

     Band symmetry, C_s (m)     point group:

     e(  1 -  1) =     -7.43179  eV     1   --> A'             
     e(  2 -  2) =     10.24229  eV     1   --> A'             
     e(  3 -  3) =     12.00274  eV     1   --> A''            
     e(  4 -  4) =     12.69258  eV     1   --> A'             
     e(  5 -  5) =     19.63685  eV     1   --> A'             
     e(  6 -  6) =     21.02987  eV     1   --> A''            
     e(  7 -  7) =     21.11996  eV     1   --> A'             
     e(  8 -  8) =     27.17192  eV     1   --> A'             

 **************************************************************************

 **************************************************************************

                    xk=(   0.07500,   0.07500,   0.15000  )

     Band symmetry, C_s (m)     point group:

     e(  1 -  1) =     -7.82199  eV     1   --> A'             
     e(  2 -  2) =     11.75998  eV     1   --> A'             
     e(  3 -  3) =     12.68303  eV     1   --> A''            
     e(  4 -  4) =     13.10405  eV     1   --> A'             
     e(  5 -  5) =     19.36821  eV     1   --> A'             
     e(  6 -  6) =     20.12228  eV     1   --> A''            
     e(  7 -  7) =     20.23187  eV     1   --> A'             
     e(  8 -  8) =     26.94799  eV     1   --> A'             

 **************************************************************************

 **************************************************************************

                    xk=(   0.03750,   0.03750,   0.07500  )

     Band symmetry, C_s (m)     point group:

     e(  1 -  1) =     -8.05632  eV     1   --> A'             
     e(  2 -  2) =     12.96923  eV     1   --> A'             
     e(  3 -  3) =     13.24294  eV     1   --> A''            
     e(  4 -  4) =     13.37550  eV     1   --> A'             
     e(  5 -  5) =     19.18775  eV     1   --> A'             
     e(  6 -  6) =     19.40706  eV     1   --> A''            
     e(  7 -  7) =     19.47029  eV     1   --> A'             
     e(  8 -  8) =     26.75132  eV     1   --> A'             

 **************************************************************************

 **************************************************************************

                    xk=(   0.00000,   0.00000,   0.00000  )

     point group O_h (m-3m) 
     there are 10 classes
     the character table:

       E     8C3   3C2   6C4   6C2'  i     8S6   3s_h  6S4   6s_d 
A_1g   1.00  1.00  1.00  1.00  1.00  1.00  1.00  1.00  1.00  1.00
A_2g   1.00  1.00  1.00 -1.00 -1.00  1.00  1.00  1.00 -1.00 -1.00
E_g    2.00 -1.00  2.00  0.00  0.00  2.00 -1.00  2.00  0.00  0.00
T_1g   3.00  0.00 -1.00  1.00 -1.00  3.00  0.00 -1.00  1.00 -1.00
T_2g   3.00  0.00 -1.00 -1.00  1.00  3.00  0.00 -1.00 -1.00  1.00
A_1u   1.00  1.00  1.00  1.00  1.00 -1.00 -1.00 -1.00 -1.00 -1.00
A_2u   1.00  1.00  1.00 -1.00 -1.00 -1.00 -1.00 -1.00  1.00  1.00
E_u    2.00 -1.00  2.00  0.00  0.00 -2.00  1.00 -2.00  0.00  0.00
T_1u   3.00  0.00 -1.00  1.00 -1.00 -3.00  0.00  1.00 -1.00  1.00
T_2u   3.00  0.00 -1.00 -1.00  1.00 -3.00  0.00  1.00  1.00 -1.00

     the symmetry operations in each class and the name of the first element:

     E        1
                                                                 
     8C3     17   19   20   18   24   21   22   23
                                                                 
     3C2      2    4    3
                                                                 
     6C4      7    8   15   16   12   11
                                                                 
     6C2'     5    6   14   13   10    9
                                                                 
     i       25
                                                                 
     8S6     41   43   44   42   48   45   46   47
                                                                 
     3s_h    26   28   27
                                                                 
     6S4     31   32   39   40   36   35
                                                                 
     6s_d    29   30   38   37   34   33
                                                                 

     Band symmetry, O_h (m-3m)  point group:

     e(  1 -  1) =     -8.13477  eV     1   --> A_1g G_1   G_1+
     e(  2 -  4) =     13.47105  eV     3   --> T_2g G_25' G_5+
     e(  5 -  7) =     19.12279  eV     3   --> T_1u G_15  G_4-
     e(  8 -  8) =     26.67579  eV     1   --> A_2u G_2'  G_2-

 **************************************************************************

 **************************************************************************

                    xk=(   0.05000,   0.05000,   0.05000  )

     point group C_3v (3m)  
     there are  3 classes
     the character table:

       E     2C3   3s_v 
A_1    1.00  1.00  1.00
A_2    1.00  1.00 -1.00
E      2.00 -1.00  0.00

     the symmetry operations in each class and the name of the first element:

     E        1
                                                                 
     2C3      2    3
                                                                 
     3s_v     4    5    6
                                                                 

     Band symmetry, C_3v (3m)   point group:

     e(  1 -  1) =     -8.06504  eV     1   --> A_1  L_1       
     e(  2 -  2) =     12.98121  eV     1   --> A_1  L_1       
     e(  3 -  4) =     13.34725  eV     2   --> E    L_3       
     e(  5 -  6) =     19.28576  eV     2   --> E    L_3       
     e(  7 -  7) =     19.41886  eV     1   --> A_1  L_1       
     e(  8 -  8) =     26.74499  eV     1   --> A_1  L_1       

 **************************************************************************

 **************************************************************************

                    xk=(   0.10000,   0.10000,   0.10000  )

     Band symmetry, C_3v (3m)   point group:

     e(  1 -  1) =     -7.85679  eV     1   --> A_1  L_1       
     e(  2 -  2) =     11.79900  eV     1   --> A_1  L_1       
     e(  3 -  4) =     13.02833  eV     2   --> E    L_3       
     e(  5 -  6) =     19.71573  eV     2   --> E    L_3       
     e(  7 -  7) =     20.05565  eV     1   --> A_1  L_1       
     e(  8 -  8) =     26.95148  eV     1   --> A_1  L_1       

 **************************************************************************

 **************************************************************************

                    xk=(   0.15000,   0.15000,   0.15000  )

     Band symmetry, C_3v (3m)   point group:

     e(  1 -  1) =     -7.50985  eV     1   --> A_1  L_1       
     e(  2 -  2) =     10.24566  eV     1   --> A_1  L_1       
     e(  3 -  4) =     12.60137  eV     2   --> E    L_3       
     e(  5 -  6) =     20.28347  eV     2   --> E    L_3       
     e(  7 -  7) =     20.74284  eV     1   --> A_1  L_1       
     e(  8 -  8) =     27.29028  eV     1   --> A_1  L_1       

 **************************************************************************

 **************************************************************************

                    xk=(   0.20000,   0.20000,   0.20000  )

     Band symmetry, C_3v (3m)   point group:

     e(  1 -  1) =     -7.02642  eV     1   --> A_1  L_1       
     e(  2 -  2) =      8.56522  eV     1   --> A_1  L_1       
     e(  3 -  4) =     12.17136  eV     2   --> E    L_3       
     e(  5 -  6) =     20.86614  eV     2   --> E    L_3       
     e(  7 -  7) =     21.26107  eV     1   --> A_1  L_1       
     e(  8 -  8) =     27.73058  eV     1   --> A_1  L_1       

 **************************************************************************

 **************************************************************************

                    xk=(   0.25000,   0.25000,   0.25000  )

     Band symmetry, C_3v (3m)   point group:

     e(  1 -  1) =     -6.41080  eV     1   --> A_1  L_1       
     e(  2 -  2) =      6.82138  eV     1   --> A_1  L_1       
     e(  3 -  4) =     11.74500  eV     2   --> E    L_3       
     e(  5 -  6) =     21.34986  eV     2   --> E    L_3       
     e(  7 -  7) =     21.62062  eV     1   --> A_1  L_1       
     e(  8 -  8) =     28.19847  eV     1   --> A_1  L_1       

 **************************************************************************

 **************************************************************************

                    xk=(   0.30000,   0.30000,   0.30000  )

     Band symmetry, C_3v (3m)   point group:

     e(  1 -  1) =     -5.67053  eV     1   --> A_1  L_1       
     e(  2 -  2) =      5.13239  eV     1   --> A_1  L_1       
     e(  3 -  4) =     11.36080  eV     2   --> E    L_3       
     e(  5 -  6) =     21.70677  eV     2   --> E    L_3       
     e(  7 -  7) =     21.86405  eV     1   --> A_1  L_1       
     e(  8 -  8) =     28.61585  eV     1   --> A_1  L_1       

 **************************************************************************

 **************************************************************************

                    xk=(   0.35000,   0.35000,   0.35000  )

     Band symmetry, C_3v (3m)   point group:

     e(  1 -  1) =     -4.80768  eV     1   --> A_1  L_1       
     e(  2 -  2) =      3.49284  eV     1   --> A_1  L_1       
     e(  3 -  4) =     11.04945  eV     2   --> E    L_3       
     e(  5 -  6) =     21.89941  eV     2   --> E    L_3       
     e(  7 -  7) =     22.03198  eV     1   --> A_1  L_1       
     e(  8 -  8) =     28.89516  eV     1   --> A_1  L_1       

 **************************************************************************

 **************************************************************************

                    xk=(   0.40000,   0.40000,   0.40000  )

     Band symmetry, C_3v (3m)   point group:

     e(  1 -  1) =     -3.85363  eV     1   --> A_1  L_1       
     e(  2 -  2) =      1.98407  eV     1   --> A_1  L_1       
     e(  3 -  4) =     10.84310  eV     2   --> E    L_3       
     e(  5 -  6) =     21.97507  eV     2   --> E    L_3       
     e(  7 -  7) =     22.15152  eV     1   --> A_1  L_1       
     e(  8 -  8) =     29.11637  eV     1   --> A_1  L_1       

 **************************************************************************

 **************************************************************************

                    xk=(   0.45000,   0.45000,   0.45000  )

     Band symmetry, C_3v (3m)   point group:

     e(  1 -  1) =     -2.90004  eV     1   --> A_1  L_1       
     e(  2 -  2) =      0.66947  eV     1   --> A_1  L_1       
     e(  3 -  4) =     10.70956  eV     2   --> E    L_3       
     e(  5 -  6) =     21.99778  eV     2   --> E    L_3       
     e(  7 -  7) =     22.20793  eV     1   --> A_1  L_1       
     e(  8 -  8) =     29.22954  eV     1   --> A_1  L_1       

 **************************************************************************

 **************************************************************************

                    xk=(   0.50000,   0.50000,   0.50000  )

     zone border point and non-symmorphic group 
     symmetry decomposition not available

 **************************************************************************

 **************************************************************************

                    xk=(   0.47500,   0.47500,   0.47500  )

     point group C_3v (3m)  
     there are  3 classes
     the character table:

       E     2C3   3s_v 
A_1    1.00  1.00  1.00
A_2    1.00  1.00 -1.00
E      2.00 -1.00  0.00

     the symmetry operations in each class and the name of the first element:

     E        1
                                                                 
     2C3      2    3
                                                                 
     3s_v     4    5    6
                                                                 

     Band symmetry, C_3v (3m)   point group:

     e(  1 -  1) =     -2.51453  eV     1   --> A_1  L_1       
     e(  2 -  2) =      0.20471  eV     1   --> A_1  L_1       
     e(  3 -  4) =     10.67711  eV     2   --> E    L_3       
     e(  5 -  6) =     22.00180  eV     2   --> E    L_3       
     e(  7 -  7) =     22.22558  eV     1   --> A_1  L_1       
     e(  8 -  8) =     29.29306  eV     1   --> A_1  L_1       

 **************************************************************************

 **************************************************************************

                    xk=(   0.45000,   0.45000,   0.45000  )

     Band symmetry, C_3v (3m)   point group:

     e(  1 -  1) =     -2.90004  eV     1   --> A_1  L_1       
     e(  2 -  2) =      0.66947  eV     1   --> A_1  L_1       
     e(  3 -  4) =     10.70956  eV     2   --> E    L_3       
     e(  5 -  6) =     21.99778  eV     2   --> E    L_3       
     e(  7 -  7) =     22.20793  eV     1   --> A_1  L_1       
     e(  8 -  8) =     29.22954  eV     1   --> A_1  L_1       

 **************************************************************************

 **************************************************************************

                    xk=(   0.42500,   0.42500,   0.42500  )

     Band symmetry, C_3v (3m)   point group:

     e(  1 -  1) =     -3.36080  eV     1   --> A_1  L_1       
     e(  2 -  2) =      1.29322  eV     1   --> A_1  L_1       
     e(  3 -  4) =     10.76588  eV     2   --> E    L_3       
     e(  5 -  6) =     21.99362  eV     2   --> E    L_3       
     e(  7 -  7) =     22.18551  eV     1   --> A_1  L_1       
     e(  8 -  8) =     29.18888  eV     1   --> A_1  L_1       

 **************************************************************************

 **************************************************************************

                    xk=(   0.40000,   0.40000,   0.40000  )

     Band symmetry, C_3v (3m)   point group:

     e(  1 -  1) =     -3.85363  eV     1   --> A_1  L_1       
     e(  2 -  2) =      1.98407  eV     1   --> A_1  L_1       
     e(  3 -  4) =     10.84310  eV     2   --> E    L_3       
     e(  5 -  6) =     21.97507  eV     2   --> E    L_3       
     e(  7 -  7) =     22.15152  eV     1   --> A_1  L_1       
     e(  8 -  8) =     29.11637  eV     1   --> A_1  L_1       

 **************************************************************************

 **************************************************************************

                    xk=(   0.37500,   0.37500,   0.37500  )

     Band symmetry, C_3v (3m)   point group:

     e(  1 -  1) =     -4.33818  eV     1   --> A_1  L_1       
     e(  2 -  2) =      2.72553  eV     1   --> A_1  L_1       
     e(  3 -  4) =     10.93210  eV     2   --> E    L_3       
     e(  5 -  6) =     21.96667  eV     2   --> E    L_3       
     e(  7 -  7) =     22.10535  eV     1   --> A_1  L_1       
     e(  8 -  8) =     29.02613  eV     1   --> A_1  L_1       

 **************************************************************************

 **************************************************************************

                    xk=(   0.35000,   0.35000,   0.35000  )

     Band symmetry, C_3v (3m)   point group:

     e(  1 -  1) =     -4.80768  eV     1   --> A_1  L_1       
     e(  2 -  2) =      3.49284  eV     1   --> A_1  L_1       
     e(  3 -  4) =     11.04945  eV     2   --> E    L_3       
     e(  5 -  6) =     21.89941  eV     2   --> E    L_3       
     e(  7 -  7) =     22.03198  eV     1   --> A_1  L_1       
     e(  8 -  8) =     28.89516  eV     1   --> A_1  L_1       

 **************************************************************************

 **************************************************************************

                    xk=(   0.32500,   0.32500,   0.32500  )

     Band symmetry, C_3v (3m)   point group:

     e(  1 -  1) =     -5.25296  eV     1   --> A_1  L_1       
     e(  2 -  2) =      4.29824  eV     1   --> A_1  L_1       
     e(  3 -  4) =     11.18925  eV     2   --> E    L_3       
     e(  5 -  6) =     21.81787  eV     2   --> E    L_3       
     e(  7 -  7) =     21.95665  eV     1   --> A_1  L_1       
     e(  8 -  8) =     28.73529  eV     1   --> A_1  L_1       

 **************************************************************************

 **************************************************************************

                    xk=(   0.30000,   0.30000,   0.30000  )

     Band symmetry, C_3v (3m)   point group:

     e(  1 -  1) =     -5.67053  eV     1   --> A_1  L_1       
     e(  2 -  2) =      5.13239  eV     1   --> A_1  L_1       
     e(  3 -  4) =     11.36080  eV     2   --> E    L_3       
     e(  5 -  6) =     21.70677  eV     2   --> E    L_3       
     e(  7 -  7) =     21.86405  eV     1   --> A_1  L_1       
     e(  8 -  8) =     28.61585  eV     1   --> A_1  L_1       

 **************************************************************************

 **************************************************************************

                    xk=(   0.27500,   0.27500,   0.27500  )

     Band symmetry, C_3v (3m)   point group:

     e(  1 -  1) =     -6.05366  eV     1   --> A_1  L_1       
     e(  2 -  2) =      5.96344  eV     1   --> A_1  L_1       
     e(  3 -  4) =     11.55225  eV     2   --> E    L_3       
     e(  5 -  6) =     21.54105  eV     2   --> E    L_3       
     e(  7 -  7) =     21.75569  eV     1   --> A_1  L_1       
     e(  8 -  8) =     28.43226  eV     1   --> A_1  L_1       

 **************************************************************************

 **************************************************************************

                    xk=(   0.25000,   0.25000,   0.25000  )

     Band symmetry, C_3v (3m)   point group:

     e(  1 -  1) =     -6.41080  eV     1   --> A_1  L_1       
     e(  2 -  2) =      6.82138  eV     1   --> A_1  L_1       
     e(  3 -  4) =     11.74500  eV     2   --> E    L_3       
     e(  5 -  6) =     21.34986  eV     2   --> E    L_3       
     e(  7 -  7) =     21.62062  eV     1   --> A_1  L_1       
     e(  8 -  8) =     28.19847  eV     1   --> A_1  L_1       

 **************************************************************************

     BANDS        :      0.34s CPU      0.37s WALL


   This run was terminated on:  23:57:15   5Oct2024            

=------------------------------------------------------------------------------=
   JOB DONE.
=------------------------------------------------------------------------------=
