
     Program BANDS v.7.3.1 starts on  5Oct2024 at 21:54:40 

     This program is part of the open-source Quantum ESPRESSO suite
     for quantum simulation of materials; please cite
         "P. Giannozzi et al., J. Phys.:Condens. Matter 21 395502 (2009);
         "P. Giannozzi et al., J. Phys.:Condens. Matter 29 465901 (2017);
         "P. Giannozzi et al., J. Chem. Phys. 152 154105 (2020);
          URL http://www.quantum-espresso.org", 
     in publications or presentations arising from this work. More details at
     http://www.quantum-espresso.org/quote

     Parallel version (MPI & OpenMP), running on       2 processor cores
     Number of MPI processes:                 2
     Threads/MPI process:                     1

     MPI processes distributed on     1 nodes
     R & G space division:  proc/nbgrp/npool/nimage =       2
     508836 MiB available memory on the printing compute node when the environment starts


     Reading xml data from directory:

     ./diamond.save/

     IMPORTANT: XC functional enforced from input :
     Exchange-correlation= PBE
                           (   1   4   3   4   0   0   0)
     Any further DFT definition will be discarded
     Please, verify this is what you really want


     Parallelization info
     --------------------
     sticks:   dense  smooth     PW     G-vecs:    dense   smooth      PW
     Min         156     126     42                 1847     1318     264
     Max         157     127     43                 1848     1319     267
     Sum         313     253     85                 3695     2637     531

     Using Slab Decomposition

     Reading collected, re-writing distributed wavefunctions
     high-symmetry point:  0.0000 0.0000 0.0000   x coordinate   0.0000
     high-symmetry point:  0.5000 0.0000 0.5000   x coordinate   0.7071
     high-symmetry point:  0.3750 0.3750 0.7500   x coordinate   1.1748
     high-symmetry point:  0.0000 0.0000 0.0000   x coordinate   2.0934
     high-symmetry point:  0.5000 0.5000 0.5000   x coordinate   2.9594
     high-symmetry point:  0.2500 0.2500 0.2500   x coordinate   3.3924

     Plottable bands (eV) written to file bands.dat.gnu
     Bands written to file bands.dat

 **************************************************************************

                    xk=(   0.00000,   0.00000,   0.00000  )

     point group O_h (m-3m) 
     there are 10 classes
     the character table:

       E     8C3   3C2   6C4   6C2'  i     8S6   3s_h  6S4   6s_d 
A_1g   1.00  1.00  1.00  1.00  1.00  1.00  1.00  1.00  1.00  1.00
A_2g   1.00  1.00  1.00 -1.00 -1.00  1.00  1.00  1.00 -1.00 -1.00
E_g    2.00 -1.00  2.00  0.00  0.00  2.00 -1.00  2.00  0.00  0.00
T_1g   3.00  0.00 -1.00  1.00 -1.00  3.00  0.00 -1.00  1.00 -1.00
T_2g   3.00  0.00 -1.00 -1.00  1.00  3.00  0.00 -1.00 -1.00  1.00
A_1u   1.00  1.00  1.00  1.00  1.00 -1.00 -1.00 -1.00 -1.00 -1.00
A_2u   1.00  1.00  1.00 -1.00 -1.00 -1.00 -1.00 -1.00  1.00  1.00
E_u    2.00 -1.00  2.00  0.00  0.00 -2.00  1.00 -2.00  0.00  0.00
T_1u   3.00  0.00 -1.00  1.00 -1.00 -3.00  0.00  1.00 -1.00  1.00
T_2u   3.00  0.00 -1.00 -1.00  1.00 -3.00  0.00  1.00  1.00 -1.00

     the symmetry operations in each class and the name of the first element:

     E        1
                                                                 
     8C3     17   19   20   18   24   21   22   23
                                                                 
     3C2      2    4    3
                                                                 
     6C4      7    8   15   16   12   11
                                                                 
     6C2'     5    6   14   13   10    9
                                                                 
     i       25
                                                                 
     8S6     41   43   44   42   48   45   46   47
                                                                 
     3s_h    26   28   27
                                                                 
     6S4     31   32   39   40   36   35
                                                                 
     6s_d    29   30   38   37   34   33
                                                                 

     Band symmetry, O_h (m-3m)  point group:

     e(  1 -  1) =     -8.13520  eV     1   --> A_1g G_1   G_1+
     e(  2 -  4) =     13.47031  eV     3   --> T_2g G_25' G_5+
     e(  5 -  7) =     19.12226  eV     3   --> T_1u G_15  G_4-
     e(  8 -  8) =     26.67500  eV     1   --> A_2u G_2'  G_2-

 **************************************************************************

 **************************************************************************

                    xk=(   0.05000,   0.00000,   0.05000  )

     point group C_2v (mm2) 
     there are  4 classes
     the character table:

       E     C2    s_v   s_v' 
A_1    1.00  1.00  1.00  1.00
A_2    1.00  1.00 -1.00 -1.00
B_1    1.00 -1.00  1.00 -1.00
B_2    1.00 -1.00 -1.00  1.00

     the symmetry operations in each class and the name of the first element:

     E        1
                                                                 
     C2       2
                                                                 
     s_v      3
                                                                 
     s_v'     4
                                                                 

     Band symmetry, C_2v (mm2)  point group:

     e(  1 -  1) =     -8.08871  eV     1   --> A_1  D_1  S_1  
     e(  2 -  2) =     13.19285  eV     1   --> B_2  D_4  S_4  
     e(  3 -  3) =     13.27497  eV     1   --> A_1  D_1  S_1  
     e(  4 -  4) =     13.44215  eV     1   --> A_2  D_2  S_2  
     e(  5 -  5) =     19.16983  eV     1   --> B_1  D_3  S_3  
     e(  6 -  6) =     19.27128  eV     1   --> A_1  D_1  S_1  
     e(  7 -  7) =     19.35035  eV     1   --> B_2  D_4  S_4  
     e(  8 -  8) =     26.72033  eV     1   --> B_2  D_4  S_4  

 **************************************************************************

 **************************************************************************

                    xk=(   0.10000,   0.00000,   0.10000  )

     Band symmetry, C_2v (mm2)  point group:

     e(  1 -  1) =     -7.94935  eV     1   --> A_1  D_1  S_1  
     e(  2 -  2) =     12.48234  eV     1   --> B_2  D_4  S_4  
     e(  3 -  3) =     12.74655  eV     1   --> A_1  D_1  S_1  
     e(  4 -  4) =     13.35629  eV     1   --> A_2  D_2  S_2  
     e(  5 -  5) =     19.31229  eV     1   --> B_1  D_3  S_3  
     e(  6 -  6) =     19.66861  eV     1   --> A_1  D_1  S_1  
     e(  7 -  7) =     19.90648  eV     1   --> B_2  D_4  S_4  
     e(  8 -  8) =     26.84599  eV     1   --> B_2  D_4  S_4  

 **************************************************************************

 **************************************************************************

                    xk=(   0.15000,   0.00000,   0.15000  )

     Band symmetry, C_2v (mm2)  point group:

     e(  1 -  1) =     -7.71881  eV     1   --> A_1  D_1  S_1  
     e(  2 -  2) =     11.57008  eV     1   --> B_2  D_4  S_4  
     e(  3 -  3) =     11.99862  eV     1   --> A_1  D_1  S_1  
     e(  4 -  4) =     13.21799  eV     1   --> A_2  D_2  S_2  
     e(  5 -  5) =     19.54883  eV     1   --> B_1  D_3  S_3  
     e(  6 -  6) =     20.21508  eV     1   --> A_1  D_1  S_1  
     e(  7 -  7) =     20.57689  eV     1   --> B_2  D_4  S_4  
     e(  8 -  8) =     27.01888  eV     1   --> B_2  D_4  S_4  

 **************************************************************************

 **************************************************************************

                    xk=(   0.20000,   0.00000,   0.20000  )

     Band symmetry, C_2v (mm2)  point group:

     e(  1 -  1) =     -7.39543  eV     1   --> A_1  D_1  S_1  
     e(  2 -  2) =     10.53511  eV     1   --> B_2  D_4  S_4  
     e(  3 -  3) =     11.12618  eV     1   --> A_1  D_1  S_1  
     e(  4 -  4) =     13.00511  eV     1   --> A_2  D_2  S_2  
     e(  5 -  5) =     19.87900  eV     1   --> B_1  D_3  S_3  
     e(  6 -  6) =     20.89281  eV     1   --> A_1  D_1  S_1  
     e(  7 -  7) =     21.22577  eV     1   --> B_2  D_4  S_4  
     e(  8 -  8) =     27.18371  eV     1   --> B_2  D_4  S_4  

 **************************************************************************

 **************************************************************************

                    xk=(   0.25000,   0.00000,   0.25000  )

     Band symmetry, C_2v (mm2)  point group:

     e(  1 -  1) =     -6.98136  eV     1   --> A_1  D_1  S_1  
     e(  2 -  2) =      9.48070  eV     1   --> B_2  D_4  S_4  
     e(  3 -  3) =     10.20961  eV     1   --> A_1  D_1  S_1  
     e(  4 -  4) =     12.75721  eV     1   --> A_2  D_2  S_2  
     e(  5 -  5) =     20.29877  eV     1   --> B_1  D_3  S_3  
     e(  6 -  6) =     21.63020  eV     1   --> A_1  D_1  S_1  
     e(  7 -  7) =     21.74665  eV     1   --> B_2  D_4  S_4  
     e(  8 -  8) =     27.27461  eV     1   --> B_2  D_4  S_4  

 **************************************************************************

 **************************************************************************

                    xk=(   0.30000,   0.00000,   0.30000  )

     Band symmetry, C_2v (mm2)  point group:

     e(  1 -  1) =     -6.47941  eV     1   --> A_1  D_1  S_1  
     e(  2 -  2) =      8.41984  eV     1   --> B_2  D_4  S_4  
     e(  3 -  3) =      9.25725  eV     1   --> A_1  D_1  S_1  
     e(  4 -  4) =     12.40362  eV     1   --> A_2  D_2  S_2  
     e(  5 -  5) =     20.80621  eV     1   --> B_1  D_3  S_3  
     e(  6 -  6) =     22.07122  eV     1   --> B_2  D_4  S_4  
     e(  7 -  7) =     22.38492  eV     1   --> A_1  D_1  S_1  
     e(  8 -  8) =     27.25639  eV     1   --> B_2  D_4  S_4  

 **************************************************************************

 **************************************************************************

                    xk=(   0.35000,   0.00000,   0.35000  )

     Band symmetry, C_2v (mm2)  point group:

     e(  1 -  1) =     -5.89190  eV     1   --> A_1  D_1  S_1  
     e(  2 -  2) =      7.39497  eV     1   --> B_2  D_4  S_4  
     e(  3 -  3) =      8.32300  eV     1   --> A_1  D_1  S_1  
     e(  4 -  4) =     11.97467  eV     1   --> A_2  D_2  S_2  
     e(  5 -  5) =     21.38715  eV     1   --> B_1  D_3  S_3  
     e(  6 -  6) =     22.19058  eV     1   --> B_2  D_4  S_4  
     e(  7 -  7) =     23.18965  eV     1   --> A_1  D_1  S_1  
     e(  8 -  8) =     27.15864  eV     1   --> B_2  D_4  S_4  

 **************************************************************************

 **************************************************************************

                    xk=(   0.40000,   0.00000,   0.40000  )

     Band symmetry, C_2v (mm2)  point group:

     e(  1 -  1) =     -5.21867  eV     1   --> A_1  D_1  S_1  
     e(  2 -  2) =      6.43112  eV     1   --> B_2  D_4  S_4  
     e(  3 -  3) =      7.43192  eV     1   --> A_1  D_1  S_1  
     e(  4 -  4) =     11.50499  eV     1   --> A_2  D_2  S_2  
     e(  5 -  5) =     22.06112  eV     1   --> B_1  D_3  S_3  
     e(  6 -  6) =     22.10420  eV     1   --> B_2  D_4  S_4  
     e(  7 -  7) =     24.06027  eV     1   --> A_1  D_1  S_1  
     e(  8 -  8) =     27.14758  eV     1   --> B_2  D_4  S_4  

 **************************************************************************

 **************************************************************************

                    xk=(   0.45000,   0.00000,   0.45000  )

     Band symmetry, C_2v (mm2)  point group:

     e(  1 -  1) =     -4.46674  eV     1   --> A_1  D_1  S_1  
     e(  2 -  2) =      5.52820  eV     1   --> B_2  D_4  S_4  
     e(  3 -  3) =      6.58873  eV     1   --> A_1  D_1  S_1  
     e(  4 -  4) =     10.99795  eV     1   --> A_2  D_2  S_2  
     e(  5 -  5) =     21.82994  eV     1   --> B_2  D_4  S_4  
     e(  6 -  6) =     22.80213  eV     1   --> B_1  D_3  S_3  
     e(  7 -  7) =     24.97548  eV     1   --> A_1  D_1  S_1  
     e(  8 -  8) =     27.23904  eV     1   --> B_2  D_4  S_4  

 **************************************************************************

 **************************************************************************

                    xk=(   0.50000,   0.00000,   0.50000  )

     Band symmetry, C_2v (mm2)  point group:

     e(  1 -  1) =     -3.64837  eV     1   --> A_1  D_1  S_1  
     e(  2 -  2) =      4.68698  eV     1   --> B_2  D_4  S_4  
     e(  3 -  3) =      5.81221  eV     1   --> A_1  D_1  S_1  
     e(  4 -  4) =     10.44938  eV     1   --> A_2  D_2  S_2  
     e(  5 -  5) =     21.41886  eV     1   --> B_2  D_4  S_4  
     e(  6 -  6) =     23.60667  eV     1   --> B_1  D_3  S_3  
     e(  7 -  7) =     25.93610  eV     1   --> A_1  D_1  S_1  
     e(  8 -  8) =     27.40710  eV     1   --> B_2  D_4  S_4  

 **************************************************************************

 **************************************************************************

                    xk=(   0.48750,   0.03750,   0.52500  )

     point group C_1 (1)    
     there are  1 classes
     the character table:

       E    
A      1.00

     the symmetry operations in each class and the name of the first element:

     E        1
                                                                 

     Band symmetry, C_1 (1)     point group:

     e(  1 -  1) =     -3.52368  eV     1   --> A              
     e(  2 -  2) =      4.37101  eV     1   --> A              
     e(  3 -  3) =      5.95087  eV     1   --> A              
     e(  4 -  4) =     10.35469  eV     1   --> A              
     e(  5 -  5) =     21.40960  eV     1   --> A              
     e(  6 -  6) =     23.62741  eV     1   --> A              
     e(  7 -  7) =     25.97216  eV     1   --> A              
     e(  8 -  8) =     27.50012  eV     1   --> A              

 **************************************************************************

 **************************************************************************

                    xk=(   0.47500,   0.07500,   0.55000  )

     Band symmetry, C_1 (1)     point group:

     e(  1 -  1) =     -3.36535  eV     1   --> A              
     e(  2 -  2) =      3.84621  eV     1   --> A              
     e(  3 -  3) =      6.32338  eV     1   --> A              
     e(  4 -  4) =     10.21453  eV     1   --> A              
     e(  5 -  5) =     21.49244  eV     1   --> A              
     e(  6 -  6) =     23.46896  eV     1   --> A              
     e(  7 -  7) =     25.89992  eV     1   --> A              
     e(  8 -  8) =     27.68223  eV     1   --> A              

 **************************************************************************

 **************************************************************************

                    xk=(   0.46250,   0.11250,   0.57500  )

     Band symmetry, C_1 (1)     point group:

     e(  1 -  1) =     -3.17441  eV     1   --> A              
     e(  2 -  2) =      3.28998  eV     1   --> A              
     e(  3 -  3) =      6.75465  eV     1   --> A              
     e(  4 -  4) =     10.02947  eV     1   --> A              
     e(  5 -  5) =     21.65437  eV     1   --> A              
     e(  6 -  6) =     23.16665  eV     1   --> A              
     e(  7 -  7) =     25.83865  eV     1   --> A              
     e(  8 -  8) =     27.84735  eV     1   --> A              

 **************************************************************************

 **************************************************************************

                    xk=(   0.45000,   0.15000,   0.60000  )

     Band symmetry, C_1 (1)     point group:

     e(  1 -  1) =     -2.95101  eV     1   --> A              
     e(  2 -  2) =      2.74440  eV     1   --> A              
     e(  3 -  3) =      7.18118  eV     1   --> A              
     e(  4 -  4) =      9.80679  eV     1   --> A              
     e(  5 -  5) =     21.84178  eV     1   --> A              
     e(  6 -  6) =     22.81233  eV     1   --> A              
     e(  7 -  7) =     25.79297  eV     1   --> A              
     e(  8 -  8) =     27.93241  eV     1   --> A              

 **************************************************************************

 **************************************************************************

                    xk=(   0.43750,   0.18750,   0.62500  )

     Band symmetry, C_1 (1)     point group:

     e(  1 -  1) =     -2.70351  eV     1   --> A              
     e(  2 -  2) =      2.23359  eV     1   --> A              
     e(  3 -  3) =      7.58142  eV     1   --> A              
     e(  4 -  4) =      9.58928  eV     1   --> A              
     e(  5 -  5) =     21.85952  eV     1   --> A              
     e(  6 -  6) =     22.66831  eV     1   --> A              
     e(  7 -  7) =     25.77165  eV     1   --> A              
     e(  8 -  8) =     27.99908  eV     1   --> A              

 **************************************************************************

 **************************************************************************

                    xk=(   0.42500,   0.22500,   0.65000  )

     Band symmetry, C_1 (1)     point group:

     e(  1 -  1) =     -2.43435  eV     1   --> A              
     e(  2 -  2) =      1.76617  eV     1   --> A              
     e(  3 -  3) =      7.89516  eV     1   --> A              
     e(  4 -  4) =      9.40086  eV     1   --> A              
     e(  5 -  5) =     21.54985  eV     1   --> A              
     e(  6 -  6) =     22.91765  eV     1   --> A              
     e(  7 -  7) =     25.72232  eV     1   --> A              
     e(  8 -  8) =     28.04948  eV     1   --> A              

 **************************************************************************

 **************************************************************************

                    xk=(   0.41250,   0.26250,   0.67500  )

     Band symmetry, C_1 (1)     point group:

     e(  1 -  1) =     -2.15908  eV     1   --> A              
     e(  2 -  2) =      1.35686  eV     1   --> A              
     e(  3 -  3) =      8.03984  eV     1   --> A              
     e(  4 -  4) =      9.30414  eV     1   --> A              
     e(  5 -  5) =     21.18052  eV     1   --> A              
     e(  6 -  6) =     23.32199  eV     1   --> A              
     e(  7 -  7) =     25.62031  eV     1   --> A              
     e(  8 -  8) =     28.11020  eV     1   --> A              

 **************************************************************************

 **************************************************************************

                    xk=(   0.40000,   0.30000,   0.70000  )

     Band symmetry, C_1 (1)     point group:

     e(  1 -  1) =     -1.89995  eV     1   --> A              
     e(  2 -  2) =      1.02970  eV     1   --> A              
     e(  3 -  3) =      7.98799  eV     1   --> A              
     e(  4 -  4) =      9.34677  eV     1   --> A              
     e(  5 -  5) =     20.88156  eV     1   --> A              
     e(  6 -  6) =     23.77519  eV     1   --> A              
     e(  7 -  7) =     25.46516  eV     1   --> A              
     e(  8 -  8) =     28.22025  eV     1   --> A              

 **************************************************************************

 **************************************************************************

                    xk=(   0.38750,   0.33750,   0.72500  )

     Band symmetry, C_1 (1)     point group:

     e(  1 -  1) =     -1.69242  eV     1   --> A              
     e(  2 -  2) =      0.83042  eV     1   --> A              
     e(  3 -  3) =      7.80233  eV     1   --> A              
     e(  4 -  4) =      9.44767  eV     1   --> A              
     e(  5 -  5) =     20.70113  eV     1   --> A              
     e(  6 -  6) =     24.22714  eV     1   --> A              
     e(  7 -  7) =     25.28538  eV     1   --> A              
     e(  8 -  8) =     28.38175  eV     1   --> A              

 **************************************************************************

 **************************************************************************

                    xk=(   0.37500,   0.37500,   0.75000  )

     point group C_s (m)    
     there are  2 classes
     the character table:

       E     s    
A'     1.00  1.00
A''    1.00 -1.00

     the symmetry operations in each class and the name of the first element:

     E        1
                                                                 
     s        2
                                                                 

     Band symmetry, C_s (m)     point group:

     e(  1 -  1) =     -1.58544  eV     1   --> A'             
     e(  2 -  2) =      0.79552  eV     1   --> A'             
     e(  3 -  3) =      7.55226  eV     1   --> A'             
     e(  4 -  4) =      9.51537  eV     1   --> A''            
     e(  5 -  5) =     20.65603  eV     1   --> A'             
     e(  6 -  6) =     24.45627  eV     1   --> A''            
     e(  7 -  7) =     25.24011  eV     1   --> A'             
     e(  8 -  8) =     28.56791  eV     1   --> A'             

 **************************************************************************

 **************************************************************************

                    xk=(   0.33750,   0.33750,   0.67500  )

     Band symmetry, C_s (m)     point group:

     e(  1 -  1) =     -2.25201  eV     1   --> A'             
     e(  2 -  2) =      1.26864  eV     1   --> A'             
     e(  3 -  3) =      8.35629  eV     1   --> A'             
     e(  4 -  4) =      9.47850  eV     1   --> A''            
     e(  5 -  5) =     20.59922  eV     1   --> A'             
     e(  6 -  6) =     24.36778  eV     1   --> A''            
     e(  7 -  7) =     24.78080  eV     1   --> A'             
     e(  8 -  8) =     27.94068  eV     1   --> A'             

 **************************************************************************

 **************************************************************************

                    xk=(   0.30000,   0.30000,   0.60000  )

     Band symmetry, C_s (m)     point group:

     e(  1 -  1) =     -3.33231  eV     1   --> A'             
     e(  2 -  2) =      2.40721  eV     1   --> A'             
     e(  3 -  3) =      9.17592  eV     1   --> A'             
     e(  4 -  4) =      9.57741  eV     1   --> A''            
     e(  5 -  5) =     20.58018  eV     1   --> A'             
     e(  6 -  6) =     24.13954  eV     1   --> A''            
     e(  7 -  7) =     24.27650  eV     1   --> A'             
     e(  8 -  8) =     27.37697  eV     1   --> A'             

 **************************************************************************

 **************************************************************************

                    xk=(   0.26250,   0.26250,   0.52500  )

     Band symmetry, C_s (m)     point group:

     e(  1 -  1) =     -4.39874  eV     1   --> A'             
     e(  2 -  2) =      3.78782  eV     1   --> A'             
     e(  3 -  3) =      9.82186  eV     1   --> A''            
     e(  4 -  4) =      9.99078  eV     1   --> A'             
     e(  5 -  5) =     20.53627  eV     1   --> A'             
     e(  6 -  6) =     23.75174  eV     1   --> A'             
     e(  7 -  7) =     23.82112  eV     1   --> A''            
     e(  8 -  8) =     27.04534  eV     1   --> A'             

 **************************************************************************

 **************************************************************************

                    xk=(   0.22500,   0.22500,   0.45000  )

     Band symmetry, C_s (m)     point group:

     e(  1 -  1) =     -5.36632  eV     1   --> A'             
     e(  2 -  2) =      5.31031  eV     1   --> A'             
     e(  3 -  3) =     10.20372  eV     1   --> A''            
     e(  4 -  4) =     10.77142  eV     1   --> A'             
     e(  5 -  5) =     20.42844  eV     1   --> A'             
     e(  6 -  6) =     23.19029  eV     1   --> A'             
     e(  7 -  7) =     23.37614  eV     1   --> A''            
     e(  8 -  8) =     27.00193  eV     1   --> A'             

 **************************************************************************

 **************************************************************************

                    xk=(   0.18750,   0.18750,   0.37500  )

     Band symmetry, C_s (m)     point group:

     e(  1 -  1) =     -6.20098  eV     1   --> A'             
     e(  2 -  2) =      6.92400  eV     1   --> A'             
     e(  3 -  3) =     10.70698  eV     1   --> A''            
     e(  4 -  4) =     11.49809  eV     1   --> A'             
     e(  5 -  5) =     20.20681  eV     1   --> A'             
     e(  6 -  6) =     22.57011  eV     1   --> A'             
     e(  7 -  7) =     22.75444  eV     1   --> A''            
     e(  8 -  8) =     27.14855  eV     1   --> A'             

 **************************************************************************

 **************************************************************************

                    xk=(   0.15000,   0.15000,   0.30000  )

     Band symmetry, C_s (m)     point group:

     e(  1 -  1) =     -6.88994  eV     1   --> A'             
     e(  2 -  2) =      8.59521  eV     1   --> A'             
     e(  3 -  3) =     11.32684  eV     1   --> A''            
     e(  4 -  4) =     12.15575  eV     1   --> A'             
     e(  5 -  5) =     19.93916  eV     1   --> A'             
     e(  6 -  6) =     21.89012  eV     1   --> A'             
     e(  7 -  7) =     21.94467  eV     1   --> A''            
     e(  8 -  8) =     27.26959  eV     1   --> A'             

 **************************************************************************

 **************************************************************************

                    xk=(   0.11250,   0.11250,   0.22500  )

     Band symmetry, C_s (m)     point group:

     e(  1 -  1) =     -7.43223  eV     1   --> A'             
     e(  2 -  2) =     10.24166  eV     1   --> A'             
     e(  3 -  3) =     12.00207  eV     1   --> A''            
     e(  4 -  4) =     12.69186  eV     1   --> A'             
     e(  5 -  5) =     19.63631  eV     1   --> A'             
     e(  6 -  6) =     21.02927  eV     1   --> A''            
     e(  7 -  7) =     21.11935  eV     1   --> A'             
     e(  8 -  8) =     27.17117  eV     1   --> A'             

 **************************************************************************

 **************************************************************************

                    xk=(   0.07500,   0.07500,   0.15000  )

     Band symmetry, C_s (m)     point group:

     e(  1 -  1) =     -7.82242  eV     1   --> A'             
     e(  2 -  2) =     11.75931  eV     1   --> A'             
     e(  3 -  3) =     12.68233  eV     1   --> A''            
     e(  4 -  4) =     13.10332  eV     1   --> A'             
     e(  5 -  5) =     19.36766  eV     1   --> A'             
     e(  6 -  6) =     20.12170  eV     1   --> A''            
     e(  7 -  7) =     20.23128  eV     1   --> A'             
     e(  8 -  8) =     26.94721  eV     1   --> A'             

 **************************************************************************

 **************************************************************************

                    xk=(   0.03750,   0.03750,   0.07500  )

     Band symmetry, C_s (m)     point group:

     e(  1 -  1) =     -8.05676  eV     1   --> A'             
     e(  2 -  2) =     12.96852  eV     1   --> A'             
     e(  3 -  3) =     13.24222  eV     1   --> A''            
     e(  4 -  4) =     13.37476  eV     1   --> A'             
     e(  5 -  5) =     19.18722  eV     1   --> A'             
     e(  6 -  6) =     19.40651  eV     1   --> A''            
     e(  7 -  7) =     19.46973  eV     1   --> A'             
     e(  8 -  8) =     26.75053  eV     1   --> A'             

 **************************************************************************

 **************************************************************************

                    xk=(   0.00000,   0.00000,   0.00000  )

     point group O_h (m-3m) 
     there are 10 classes
     the character table:

       E     8C3   3C2   6C4   6C2'  i     8S6   3s_h  6S4   6s_d 
A_1g   1.00  1.00  1.00  1.00  1.00  1.00  1.00  1.00  1.00  1.00
A_2g   1.00  1.00  1.00 -1.00 -1.00  1.00  1.00  1.00 -1.00 -1.00
E_g    2.00 -1.00  2.00  0.00  0.00  2.00 -1.00  2.00  0.00  0.00
T_1g   3.00  0.00 -1.00  1.00 -1.00  3.00  0.00 -1.00  1.00 -1.00
T_2g   3.00  0.00 -1.00 -1.00  1.00  3.00  0.00 -1.00 -1.00  1.00
A_1u   1.00  1.00  1.00  1.00  1.00 -1.00 -1.00 -1.00 -1.00 -1.00
A_2u   1.00  1.00  1.00 -1.00 -1.00 -1.00 -1.00 -1.00  1.00  1.00
E_u    2.00 -1.00  2.00  0.00  0.00 -2.00  1.00 -2.00  0.00  0.00
T_1u   3.00  0.00 -1.00  1.00 -1.00 -3.00  0.00  1.00 -1.00  1.00
T_2u   3.00  0.00 -1.00 -1.00  1.00 -3.00  0.00  1.00  1.00 -1.00

     the symmetry operations in each class and the name of the first element:

     E        1
                                                                 
     8C3     17   19   20   18   24   21   22   23
                                                                 
     3C2      2    4    3
                                                                 
     6C4      7    8   15   16   12   11
                                                                 
     6C2'     5    6   14   13   10    9
                                                                 
     i       25
                                                                 
     8S6     41   43   44   42   48   45   46   47
                                                                 
     3s_h    26   28   27
                                                                 
     6S4     31   32   39   40   36   35
                                                                 
     6s_d    29   30   38   37   34   33
                                                                 

     Band symmetry, O_h (m-3m)  point group:

     e(  1 -  1) =     -8.13520  eV     1   --> A_1g G_1   G_1+
     e(  2 -  4) =     13.47031  eV     3   --> T_2g G_25' G_5+
     e(  5 -  7) =     19.12226  eV     3   --> T_1u G_15  G_4-
     e(  8 -  8) =     26.67500  eV     1   --> A_2u G_2'  G_2-

 **************************************************************************

 **************************************************************************

                    xk=(   0.05000,   0.05000,   0.05000  )

     point group C_3v (3m)  
     there are  3 classes
     the character table:

       E     2C3   3s_v 
A_1    1.00  1.00  1.00
A_2    1.00  1.00 -1.00
E      2.00 -1.00  0.00

     the symmetry operations in each class and the name of the first element:

     E        1
                                                                 
     2C3      2    3
                                                                 
     3s_v     4    5    6
                                                                 

     Band symmetry, C_3v (3m)   point group:

     e(  1 -  1) =     -8.06547  eV     1   --> A_1  L_1       
     e(  2 -  2) =     12.98050  eV     1   --> A_1  L_1       
     e(  3 -  4) =     13.34652  eV     2   --> E    L_3       
     e(  5 -  6) =     19.28522  eV     2   --> E    L_3       
     e(  7 -  7) =     19.41831  eV     1   --> A_1  L_1       
     e(  8 -  8) =     26.74420  eV     1   --> A_1  L_1       

 **************************************************************************

 **************************************************************************

                    xk=(   0.10000,   0.10000,   0.10000  )

     Band symmetry, C_3v (3m)   point group:

     e(  1 -  1) =     -7.85722  eV     1   --> A_1  L_1       
     e(  2 -  2) =     11.79833  eV     1   --> A_1  L_1       
     e(  3 -  4) =     13.02762  eV     2   --> E    L_3       
     e(  5 -  6) =     19.71517  eV     2   --> E    L_3       
     e(  7 -  7) =     20.05507  eV     1   --> A_1  L_1       
     e(  8 -  8) =     26.95069  eV     1   --> A_1  L_1       

 **************************************************************************

 **************************************************************************

                    xk=(   0.15000,   0.15000,   0.15000  )

     Band symmetry, C_3v (3m)   point group:

     e(  1 -  1) =     -7.51029  eV     1   --> A_1  L_1       
     e(  2 -  2) =     10.24503  eV     1   --> A_1  L_1       
     e(  3 -  4) =     12.60067  eV     2   --> E    L_3       
     e(  5 -  6) =     20.28290  eV     2   --> E    L_3       
     e(  7 -  7) =     20.74223  eV     1   --> A_1  L_1       
     e(  8 -  8) =     27.28951  eV     1   --> A_1  L_1       

 **************************************************************************

 **************************************************************************

                    xk=(   0.20000,   0.20000,   0.20000  )

     Band symmetry, C_3v (3m)   point group:

     e(  1 -  1) =     -7.02686  eV     1   --> A_1  L_1       
     e(  2 -  2) =      8.56463  eV     1   --> A_1  L_1       
     e(  3 -  4) =     12.17066  eV     2   --> E    L_3       
     e(  5 -  6) =     20.86557  eV     2   --> E    L_3       
     e(  7 -  7) =     21.26046  eV     1   --> A_1  L_1       
     e(  8 -  8) =     27.72983  eV     1   --> A_1  L_1       

 **************************************************************************

 **************************************************************************

                    xk=(   0.25000,   0.25000,   0.25000  )

     Band symmetry, C_3v (3m)   point group:

     e(  1 -  1) =     -6.41124  eV     1   --> A_1  L_1       
     e(  2 -  2) =      6.82081  eV     1   --> A_1  L_1       
     e(  3 -  4) =     11.74432  eV     2   --> E    L_3       
     e(  5 -  6) =     21.34929  eV     2   --> E    L_3       
     e(  7 -  7) =     21.62000  eV     1   --> A_1  L_1       
     e(  8 -  8) =     28.19776  eV     1   --> A_1  L_1       

 **************************************************************************

 **************************************************************************

                    xk=(   0.30000,   0.30000,   0.30000  )

     Band symmetry, C_3v (3m)   point group:

     e(  1 -  1) =     -5.67098  eV     1   --> A_1  L_1       
     e(  2 -  2) =      5.13185  eV     1   --> A_1  L_1       
     e(  3 -  4) =     11.36012  eV     2   --> E    L_3       
     e(  5 -  6) =     21.70622  eV     2   --> E    L_3       
     e(  7 -  7) =     21.86343  eV     1   --> A_1  L_1       
     e(  8 -  8) =     28.61519  eV     1   --> A_1  L_1       

 **************************************************************************

 **************************************************************************

                    xk=(   0.35000,   0.35000,   0.35000  )

     Band symmetry, C_3v (3m)   point group:

     e(  1 -  1) =     -4.80815  eV     1   --> A_1  L_1       
     e(  2 -  2) =      3.49233  eV     1   --> A_1  L_1       
     e(  3 -  4) =     11.04878  eV     2   --> E    L_3       
     e(  5 -  6) =     21.89888  eV     2   --> E    L_3       
     e(  7 -  7) =     22.03136  eV     1   --> A_1  L_1       
     e(  8 -  8) =     28.89456  eV     1   --> A_1  L_1       

 **************************************************************************

 **************************************************************************

                    xk=(   0.40000,   0.40000,   0.40000  )

     Band symmetry, C_3v (3m)   point group:

     e(  1 -  1) =     -3.85411  eV     1   --> A_1  L_1       
     e(  2 -  2) =      1.98358  eV     1   --> A_1  L_1       
     e(  3 -  4) =     10.84243  eV     2   --> E    L_3       
     e(  5 -  6) =     21.97456  eV     2   --> E    L_3       
     e(  7 -  7) =     22.15089  eV     1   --> A_1  L_1       
     e(  8 -  8) =     29.11583  eV     1   --> A_1  L_1       

 **************************************************************************

 **************************************************************************

                    xk=(   0.45000,   0.45000,   0.45000  )

     Band symmetry, C_3v (3m)   point group:

     e(  1 -  1) =     -2.90055  eV     1   --> A_1  L_1       
     e(  2 -  2) =      0.66902  eV     1   --> A_1  L_1       
     e(  3 -  4) =     10.70889  eV     2   --> E    L_3       
     e(  5 -  6) =     21.99728  eV     2   --> E    L_3       
     e(  7 -  7) =     22.20730  eV     1   --> A_1  L_1       
     e(  8 -  8) =     29.22904  eV     1   --> A_1  L_1       

 **************************************************************************

 **************************************************************************

                    xk=(   0.50000,   0.50000,   0.50000  )

     zone border point and non-symmorphic group 
     symmetry decomposition not available

 **************************************************************************

 **************************************************************************

                    xk=(   0.47500,   0.47500,   0.47500  )

     point group C_3v (3m)  
     there are  3 classes
     the character table:

       E     2C3   3s_v 
A_1    1.00  1.00  1.00
A_2    1.00  1.00 -1.00
E      2.00 -1.00  0.00

     the symmetry operations in each class and the name of the first element:

     E        1
                                                                 
     2C3      2    3
                                                                 
     3s_v     4    5    6
                                                                 

     Band symmetry, C_3v (3m)   point group:

     e(  1 -  1) =     -2.51505  eV     1   --> A_1  L_1       
     e(  2 -  2) =      0.20428  eV     1   --> A_1  L_1       
     e(  3 -  4) =     10.67644  eV     2   --> E    L_3       
     e(  5 -  6) =     22.00130  eV     2   --> E    L_3       
     e(  7 -  7) =     22.22495  eV     1   --> A_1  L_1       
     e(  8 -  8) =     29.29258  eV     1   --> A_1  L_1       

 **************************************************************************

 **************************************************************************

                    xk=(   0.45000,   0.45000,   0.45000  )

     Band symmetry, C_3v (3m)   point group:

     e(  1 -  1) =     -2.90055  eV     1   --> A_1  L_1       
     e(  2 -  2) =      0.66902  eV     1   --> A_1  L_1       
     e(  3 -  4) =     10.70889  eV     2   --> E    L_3       
     e(  5 -  6) =     21.99728  eV     2   --> E    L_3       
     e(  7 -  7) =     22.20730  eV     1   --> A_1  L_1       
     e(  8 -  8) =     29.22904  eV     1   --> A_1  L_1       

 **************************************************************************

 **************************************************************************

                    xk=(   0.42500,   0.42500,   0.42500  )

     Band symmetry, C_3v (3m)   point group:

     e(  1 -  1) =     -3.36129  eV     1   --> A_1  L_1       
     e(  2 -  2) =      1.29275  eV     1   --> A_1  L_1       
     e(  3 -  4) =     10.76521  eV     2   --> E    L_3       
     e(  5 -  6) =     21.99311  eV     2   --> E    L_3       
     e(  7 -  7) =     22.18488  eV     1   --> A_1  L_1       
     e(  8 -  8) =     29.18836  eV     1   --> A_1  L_1       

 **************************************************************************

 **************************************************************************

                    xk=(   0.40000,   0.40000,   0.40000  )

     Band symmetry, C_3v (3m)   point group:

     e(  1 -  1) =     -3.85411  eV     1   --> A_1  L_1       
     e(  2 -  2) =      1.98358  eV     1   --> A_1  L_1       
     e(  3 -  4) =     10.84243  eV     2   --> E    L_3       
     e(  5 -  6) =     21.97456  eV     2   --> E    L_3       
     e(  7 -  7) =     22.15089  eV     1   --> A_1  L_1       
     e(  8 -  8) =     29.11583  eV     1   --> A_1  L_1       

 **************************************************************************

 **************************************************************************

                    xk=(   0.37500,   0.37500,   0.37500  )

     Band symmetry, C_3v (3m)   point group:

     e(  1 -  1) =     -4.33865  eV     1   --> A_1  L_1       
     e(  2 -  2) =      2.72503  eV     1   --> A_1  L_1       
     e(  3 -  4) =     10.93143  eV     2   --> E    L_3       
     e(  5 -  6) =     21.96615  eV     2   --> E    L_3       
     e(  7 -  7) =     22.10472  eV     1   --> A_1  L_1       
     e(  8 -  8) =     29.02556  eV     1   --> A_1  L_1       

 **************************************************************************

 **************************************************************************

                    xk=(   0.35000,   0.35000,   0.35000  )

     Band symmetry, C_3v (3m)   point group:

     e(  1 -  1) =     -4.80815  eV     1   --> A_1  L_1       
     e(  2 -  2) =      3.49233  eV     1   --> A_1  L_1       
     e(  3 -  4) =     11.04878  eV     2   --> E    L_3       
     e(  5 -  6) =     21.89888  eV     2   --> E    L_3       
     e(  7 -  7) =     22.03136  eV     1   --> A_1  L_1       
     e(  8 -  8) =     28.89456  eV     1   --> A_1  L_1       

 **************************************************************************

 **************************************************************************

                    xk=(   0.32500,   0.32500,   0.32500  )

     Band symmetry, C_3v (3m)   point group:

     e(  1 -  1) =     -5.25342  eV     1   --> A_1  L_1       
     e(  2 -  2) =      4.29772  eV     1   --> A_1  L_1       
     e(  3 -  4) =     11.18857  eV     2   --> E    L_3       
     e(  5 -  6) =     21.81733  eV     2   --> E    L_3       
     e(  7 -  7) =     21.95602  eV     1   --> A_1  L_1       
     e(  8 -  8) =     28.73466  eV     1   --> A_1  L_1       

 **************************************************************************

 **************************************************************************

                    xk=(   0.30000,   0.30000,   0.30000  )

     Band symmetry, C_3v (3m)   point group:

     e(  1 -  1) =     -5.67098  eV     1   --> A_1  L_1       
     e(  2 -  2) =      5.13185  eV     1   --> A_1  L_1       
     e(  3 -  4) =     11.36012  eV     2   --> E    L_3       
     e(  5 -  6) =     21.70622  eV     2   --> E    L_3       
     e(  7 -  7) =     21.86343  eV     1   --> A_1  L_1       
     e(  8 -  8) =     28.61519  eV     1   --> A_1  L_1       

 **************************************************************************

 **************************************************************************

                    xk=(   0.27500,   0.27500,   0.27500  )

     Band symmetry, C_3v (3m)   point group:

     e(  1 -  1) =     -6.05411  eV     1   --> A_1  L_1       
     e(  2 -  2) =      5.96289  eV     1   --> A_1  L_1       
     e(  3 -  4) =     11.55157  eV     2   --> E    L_3       
     e(  5 -  6) =     21.54049  eV     2   --> E    L_3       
     e(  7 -  7) =     21.75506  eV     1   --> A_1  L_1       
     e(  8 -  8) =     28.43157  eV     1   --> A_1  L_1       

 **************************************************************************

 **************************************************************************

                    xk=(   0.25000,   0.25000,   0.25000  )

     Band symmetry, C_3v (3m)   point group:

     e(  1 -  1) =     -6.41124  eV     1   --> A_1  L_1       
     e(  2 -  2) =      6.82081  eV     1   --> A_1  L_1       
     e(  3 -  4) =     11.74432  eV     2   --> E    L_3       
     e(  5 -  6) =     21.34929  eV     2   --> E    L_3       
     e(  7 -  7) =     21.62000  eV     1   --> A_1  L_1       
     e(  8 -  8) =     28.19776  eV     1   --> A_1  L_1       

 **************************************************************************

     BANDS        :      0.36s CPU      0.39s WALL


   This run was terminated on:  21:54:41   5Oct2024            

=------------------------------------------------------------------------------=
   JOB DONE.
=------------------------------------------------------------------------------=
