
     Program BANDS v.7.3.1 starts on  6Oct2024 at 14:35: 6 

     This program is part of the open-source Quantum ESPRESSO suite
     for quantum simulation of materials; please cite
         "P. Giannozzi et al., J. Phys.:Condens. Matter 21 395502 (2009);
         "P. Giannozzi et al., J. Phys.:Condens. Matter 29 465901 (2017);
         "P. Giannozzi et al., J. Chem. Phys. 152 154105 (2020);
          URL http://www.quantum-espresso.org", 
     in publications or presentations arising from this work. More details at
     http://www.quantum-espresso.org/quote

     Parallel version (MPI & OpenMP), running on       2 processor cores
     Number of MPI processes:                 2
     Threads/MPI process:                     1

     MPI processes distributed on     1 nodes
     R & G space division:  proc/nbgrp/npool/nimage =       2
     479979 MiB available memory on the printing compute node when the environment starts


     Reading xml data from directory:

     ./diamond.save/

     IMPORTANT: XC functional enforced from input :
     Exchange-correlation= PBE
                           (   1   4   3   4   0   0   0)
     Any further DFT definition will be discarded
     Please, verify this is what you really want


     Parallelization info
     --------------------
     sticks:   dense  smooth     PW     G-vecs:    dense   smooth      PW
     Min         168     168     75                 2007     2007     569
     Max         169     169     76                 2008     2008     570
     Sum         337     337    151                 4015     4015    1139

     Using Slab Decomposition

     Reading collected, re-writing distributed wavefunctions
     high-symmetry point:  0.0000 0.0000 0.0000   x coordinate   0.0000
     high-symmetry point:  0.5000 0.0000 0.5000   x coordinate   0.7071
     high-symmetry point:  0.3750 0.3750 0.7500   x coordinate   1.1748
     high-symmetry point:  0.0000 0.0000 0.0000   x coordinate   2.0934
     high-symmetry point:  0.5000 0.5000 0.5000   x coordinate   2.9594
     high-symmetry point:  0.2500 0.2500 0.2500   x coordinate   3.3924

     Plottable bands (eV) written to file bands.dat.gnu
     Bands written to file bands.dat

 **************************************************************************

                    xk=(   0.00000,   0.00000,   0.00000  )

     point group O_h (m-3m) 
     there are 10 classes
     the character table:

       E     8C3   3C2   6C4   6C2'  i     8S6   3s_h  6S4   6s_d 
A_1g   1.00  1.00  1.00  1.00  1.00  1.00  1.00  1.00  1.00  1.00
A_2g   1.00  1.00  1.00 -1.00 -1.00  1.00  1.00  1.00 -1.00 -1.00
E_g    2.00 -1.00  2.00  0.00  0.00  2.00 -1.00  2.00  0.00  0.00
T_1g   3.00  0.00 -1.00  1.00 -1.00  3.00  0.00 -1.00  1.00 -1.00
T_2g   3.00  0.00 -1.00 -1.00  1.00  3.00  0.00 -1.00 -1.00  1.00
A_1u   1.00  1.00  1.00  1.00  1.00 -1.00 -1.00 -1.00 -1.00 -1.00
A_2u   1.00  1.00  1.00 -1.00 -1.00 -1.00 -1.00 -1.00  1.00  1.00
E_u    2.00 -1.00  2.00  0.00  0.00 -2.00  1.00 -2.00  0.00  0.00
T_1u   3.00  0.00 -1.00  1.00 -1.00 -3.00  0.00  1.00 -1.00  1.00
T_2u   3.00  0.00 -1.00 -1.00  1.00 -3.00  0.00  1.00  1.00 -1.00

     the symmetry operations in each class and the name of the first element:

     E        1
                                                                 
     8C3     17   19   20   18   24   21   22   23
                                                                 
     3C2      2    4    3
                                                                 
     6C4      7    8   15   16   12   11
                                                                 
     6C2'     5    6   14   13   10    9
                                                                 
     i       25
                                                                 
     8S6     41   43   44   42   48   45   46   47
                                                                 
     3s_h    26   28   27
                                                                 
     6S4     31   32   39   40   36   35
                                                                 
     6s_d    29   30   38   37   34   33
                                                                 

     Band symmetry, O_h (m-3m)  point group:

     e(  1 -  1) =     -8.59848  eV     1   --> A_1g G_1   G_1+
     e(  2 -  4) =     11.43403  eV     3   --> T_2g G_25' G_5+
     e(  5 -  7) =     16.73270  eV     3   --> T_1u G_15  G_4-
     e(  8 -  8) =     22.37051  eV     1   --> A_2u G_2'  G_2-

 **************************************************************************

 **************************************************************************

                    xk=(   0.05000,   0.00000,   0.05000  )

     point group C_2v (mm2) 
     there are  4 classes
     the character table:

       E     C2    s_v   s_v' 
A_1    1.00  1.00  1.00  1.00
A_2    1.00  1.00 -1.00 -1.00
B_1    1.00 -1.00  1.00 -1.00
B_2    1.00 -1.00 -1.00  1.00

     the symmetry operations in each class and the name of the first element:

     E        1
                                                                 
     C2       2
                                                                 
     s_v      3
                                                                 
     s_v'     4
                                                                 

     Band symmetry, C_2v (mm2)  point group:

     e(  1 -  1) =     -8.55574  eV     1   --> A_1  D_1  S_1  
     e(  2 -  2) =     11.18094  eV     1   --> B_2  D_4  S_4  
     e(  3 -  3) =     11.26497  eV     1   --> A_1  D_1  S_1  
     e(  4 -  4) =     11.40800  eV     1   --> A_2  D_2  S_2  
     e(  5 -  5) =     16.77516  eV     1   --> B_1  D_3  S_3  
     e(  6 -  6) =     16.85856  eV     1   --> A_1  D_1  S_1  
     e(  7 -  7) =     16.92879  eV     1   --> B_2  D_4  S_4  
     e(  8 -  8) =     22.42602  eV     1   --> B_2  D_4  S_4  

 **************************************************************************

 **************************************************************************

                    xk=(   0.10000,   0.00000,   0.10000  )

     Band symmetry, C_2v (mm2)  point group:

     e(  1 -  1) =     -8.42764  eV     1   --> A_1  D_1  S_1  
     e(  2 -  2) =     10.52898  eV     1   --> B_2  D_4  S_4  
     e(  3 -  3) =     10.80354  eV     1   --> A_1  D_1  S_1  
     e(  4 -  4) =     11.32888  eV     1   --> A_2  D_2  S_2  
     e(  5 -  5) =     16.90221  eV     1   --> B_1  D_3  S_3  
     e(  6 -  6) =     17.19681  eV     1   --> A_1  D_1  S_1  
     e(  7 -  7) =     17.40338  eV     1   --> B_2  D_4  S_4  
     e(  8 -  8) =     22.58633  eV     1   --> B_2  D_4  S_4  

 **************************************************************************

 **************************************************************************

                    xk=(   0.15000,   0.00000,   0.15000  )

     Band symmetry, C_2v (mm2)  point group:

     e(  1 -  1) =     -8.21460  eV     1   --> A_1  D_1  S_1  
     e(  2 -  2) =      9.66064  eV     1   --> B_2  D_4  S_4  
     e(  3 -  3) =     10.14329  eV     1   --> A_1  D_1  S_1  
     e(  4 -  4) =     11.19418  eV     1   --> A_2  D_2  S_2  
     e(  5 -  5) =     17.11304  eV     1   --> B_1  D_3  S_3  
     e(  6 -  6) =     17.67624  eV     1   --> A_1  D_1  S_1  
     e(  7 -  7) =     17.96327  eV     1   --> B_2  D_4  S_4  
     e(  8 -  8) =     22.82874  eV     1   --> B_2  D_4  S_4  

 **************************************************************************

 **************************************************************************

                    xk=(   0.20000,   0.00000,   0.20000  )

     Band symmetry, C_2v (mm2)  point group:

     e(  1 -  1) =     -7.91739  eV     1   --> A_1  D_1  S_1  
     e(  2 -  2) =      8.69800  eV     1   --> B_2  D_4  S_4  
     e(  3 -  3) =      9.36683  eV     1   --> A_1  D_1  S_1  
     e(  4 -  4) =     11.00042  eV     1   --> A_2  D_2  S_2  
     e(  5 -  5) =     17.40622  eV     1   --> B_1  D_3  S_3  
     e(  6 -  6) =     18.24100  eV     1   --> A_1  D_1  S_1  
     e(  7 -  7) =     18.47713  eV     1   --> B_2  D_4  S_4  
     e(  8 -  8) =     23.10226  eV     1   --> B_2  D_4  S_4  

 **************************************************************************

 **************************************************************************

                    xk=(   0.25000,   0.00000,   0.25000  )

     Band symmetry, C_2v (mm2)  point group:

     e(  1 -  1) =     -7.53719  eV     1   --> A_1  D_1  S_1  
     e(  2 -  2) =      7.70936  eV     1   --> B_2  D_4  S_4  
     e(  3 -  3) =      8.53291  eV     1   --> A_1  D_1  S_1  
     e(  4 -  4) =     10.74599  eV     1   --> A_2  D_2  S_2  
     e(  5 -  5) =     17.77942  eV     1   --> B_1  D_3  S_3  
     e(  6 -  6) =     18.86494  eV     1   --> A_1  D_1  S_1  
     e(  7 -  7) =     18.88357  eV     1   --> B_2  D_4  S_4  
     e(  8 -  8) =     23.33915  eV     1   --> B_2  D_4  S_4  

 **************************************************************************

 **************************************************************************

                    xk=(   0.30000,   0.00000,   0.30000  )

     Band symmetry, C_2v (mm2)  point group:

     e(  1 -  1) =     -7.07576  eV     1   --> A_1  D_1  S_1  
     e(  2 -  2) =      6.73155  eV     1   --> B_2  D_4  S_4  
     e(  3 -  3) =      7.68053  eV     1   --> A_1  D_1  S_1  
     e(  4 -  4) =     10.43088  eV     1   --> A_2  D_2  S_2  
     e(  5 -  5) =     18.22935  eV     1   --> B_1  D_3  S_3  
     e(  6 -  6) =     19.15834  eV     1   --> B_2  D_4  S_4  
     e(  7 -  7) =     19.53788  eV     1   --> A_1  D_1  S_1  
     e(  8 -  8) =     23.48636  eV     1   --> B_2  D_4  S_4  

 **************************************************************************

 **************************************************************************

                    xk=(   0.35000,   0.00000,   0.35000  )

     Band symmetry, C_2v (mm2)  point group:

     e(  1 -  1) =     -6.53563  eV     1   --> A_1  D_1  S_1  
     e(  2 -  2) =      5.78662  eV     1   --> B_2  D_4  S_4  
     e(  3 -  3) =      6.83840  eV     1   --> A_1  D_1  S_1  
     e(  4 -  4) =     10.06114  eV     1   --> A_2  D_2  S_2  
     e(  5 -  5) =     18.75253  eV     1   --> B_1  D_3  S_3  
     e(  6 -  6) =     19.28852  eV     1   --> B_2  D_4  S_4  
     e(  7 -  7) =     20.25814  eV     1   --> A_1  D_1  S_1  
     e(  8 -  8) =     23.54988  eV     1   --> B_2  D_4  S_4  

 **************************************************************************

 **************************************************************************

                    xk=(   0.40000,   0.00000,   0.40000  )

     Band symmetry, C_2v (mm2)  point group:

     e(  1 -  1) =     -5.92052  eV     1   --> A_1  D_1  S_1  
     e(  2 -  2) =      4.88808  eV     1   --> B_2  D_4  S_4  
     e(  3 -  3) =      6.02786  eV     1   --> A_1  D_1  S_1  
     e(  4 -  4) =      9.64468  eV     1   --> A_2  D_2  S_2  
     e(  5 -  5) =     19.26445  eV     1   --> B_2  D_4  S_4  
     e(  6 -  6) =     19.34364  eV     1   --> B_1  D_3  S_3  
     e(  7 -  7) =     21.02478  eV     1   --> A_1  D_1  S_1  
     e(  8 -  8) =     23.58738  eV     1   --> B_2  D_4  S_4  

 **************************************************************************

 **************************************************************************

                    xk=(   0.45000,   0.00000,   0.45000  )

     Band symmetry, C_2v (mm2)  point group:

     e(  1 -  1) =     -5.23608  eV     1   --> A_1  D_1  S_1  
     e(  2 -  2) =      4.04496  eV     1   --> B_2  D_4  S_4  
     e(  3 -  3) =      5.26649  eV     1   --> A_1  D_1  S_1  
     e(  4 -  4) =      9.19528  eV     1   --> A_2  D_2  S_2  
     e(  5 -  5) =     19.08953  eV     1   --> B_2  D_4  S_4  
     e(  6 -  6) =     19.99562  eV     1   --> B_1  D_3  S_3  
     e(  7 -  7) =     21.83270  eV     1   --> A_1  D_1  S_1  
     e(  8 -  8) =     23.66595  eV     1   --> B_2  D_4  S_4  

 **************************************************************************

 **************************************************************************

                    xk=(   0.50000,   0.00000,   0.50000  )

     Band symmetry, C_2v (mm2)  point group:

     e(  1 -  1) =     -4.49104  eV     1   --> A_1  D_1  S_1  
     e(  2 -  2) =      3.26342  eV     1   --> B_2  D_4  S_4  
     e(  3 -  3) =      4.57098  eV     1   --> A_1  D_1  S_1  
     e(  4 -  4) =      8.72731  eV     1   --> A_2  D_2  S_2  
     e(  5 -  5) =     18.79130  eV     1   --> B_2  D_4  S_4  
     e(  6 -  6) =     20.70077  eV     1   --> B_1  D_3  S_3  
     e(  7 -  7) =     22.66595  eV     1   --> A_1  D_1  S_1  
     e(  8 -  8) =     23.82010  eV     1   --> B_2  D_4  S_4  

 **************************************************************************

 **************************************************************************

                    xk=(   0.48750,   0.03750,   0.52500  )

     point group C_1 (1)    
     there are  1 classes
     the character table:

       E    
A      1.00

     the symmetry operations in each class and the name of the first element:

     E        1
                                                                 

     Band symmetry, C_1 (1)     point group:

     e(  1 -  1) =     -4.37884  eV     1   --> A              
     e(  2 -  2) =      3.00529  eV     1   --> A              
     e(  3 -  3) =      4.66523  eV     1   --> A              
     e(  4 -  4) =      8.64352  eV     1   --> A              
     e(  5 -  5) =     18.79045  eV     1   --> A              
     e(  6 -  6) =     20.71693  eV     1   --> A              
     e(  7 -  7) =     22.66678  eV     1   --> A              
     e(  8 -  8) =     23.94256  eV     1   --> A              

 **************************************************************************

 **************************************************************************

                    xk=(   0.47500,   0.07500,   0.55000  )

     Band symmetry, C_1 (1)     point group:

     e(  1 -  1) =     -4.23596  eV     1   --> A              
     e(  2 -  2) =      2.56222  eV     1   --> A              
     e(  3 -  3) =      4.96818  eV     1   --> A              
     e(  4 -  4) =      8.51341  eV     1   --> A              
     e(  5 -  5) =     18.87312  eV     1   --> A              
     e(  6 -  6) =     20.57984  eV     1   --> A              
     e(  7 -  7) =     22.55272  eV     1   --> A              
     e(  8 -  8) =     24.17173  eV     1   --> A              

 **************************************************************************

 **************************************************************************

                    xk=(   0.46250,   0.11250,   0.57500  )

     Band symmetry, C_1 (1)     point group:

     e(  1 -  1) =     -4.06431  eV     1   --> A              
     e(  2 -  2) =      2.07461  eV     1   --> A              
     e(  3 -  3) =      5.33698  eV     1   --> A              
     e(  4 -  4) =      8.34555  eV     1   --> A              
     e(  5 -  5) =     19.03350  eV     1   --> A              
     e(  6 -  6) =     20.30093  eV     1   --> A              
     e(  7 -  7) =     22.45275  eV     1   --> A              
     e(  8 -  8) =     24.38628  eV     1   --> A              

 **************************************************************************

 **************************************************************************

                    xk=(   0.45000,   0.15000,   0.60000  )

     Band symmetry, C_1 (1)     point group:

     e(  1 -  1) =     -3.86691  eV     1   --> A              
     e(  2 -  2) =      1.59234  eV     1   --> A              
     e(  3 -  3) =      5.71395  eV     1   --> A              
     e(  4 -  4) =      8.15329  eV     1   --> A              
     e(  5 -  5) =     19.25237  eV     1   --> A              
     e(  6 -  6) =     19.93495  eV     1   --> A              
     e(  7 -  7) =     22.39735  eV     1   --> A              
     e(  8 -  8) =     24.54293  eV     1   --> A              

 **************************************************************************

 **************************************************************************

                    xk=(   0.43750,   0.18750,   0.62500  )

     Band symmetry, C_1 (1)     point group:

     e(  1 -  1) =     -3.64839  eV     1   --> A              
     e(  2 -  2) =      1.13698  eV     1   --> A              
     e(  3 -  3) =      6.06170  eV     1   --> A              
     e(  4 -  4) =      7.95820  eV     1   --> A              
     e(  5 -  5) =     19.35077  eV     1   --> A              
     e(  6 -  6) =     19.71080  eV     1   --> A              
     e(  7 -  7) =     22.36431  eV     1   --> A              
     e(  8 -  8) =     24.64849  eV     1   --> A              

 **************************************************************************

 **************************************************************************

                    xk=(   0.42500,   0.22500,   0.65000  )

     Band symmetry, C_1 (1)     point group:

     e(  1 -  1) =     -3.41634  eV     1   --> A              
     e(  2 -  2) =      0.72340  eV     1   --> A              
     e(  3 -  3) =      6.33402  eV     1   --> A              
     e(  4 -  4) =      7.79635  eV     1   --> A              
     e(  5 -  5) =     19.01260  eV     1   --> A              
     e(  6 -  6) =     19.98516  eV     1   --> A              
     e(  7 -  7) =     22.32096  eV     1   --> A              
     e(  8 -  8) =     24.72790  eV     1   --> A              

 **************************************************************************

 **************************************************************************

                    xk=(   0.41250,   0.26250,   0.67500  )

     Band symmetry, C_1 (1)     point group:

     e(  1 -  1) =     -3.18300  eV     1   --> A              
     e(  2 -  2) =      0.36776  eV     1   --> A              
     e(  3 -  3) =      6.46673  eV     1   --> A              
     e(  4 -  4) =      7.72175  eV     1   --> A              
     e(  5 -  5) =     18.65715  eV     1   --> A              
     e(  6 -  6) =     20.36810  eV     1   --> A              
     e(  7 -  7) =     22.24021  eV     1   --> A              
     e(  8 -  8) =     24.80907  eV     1   --> A              

 **************************************************************************

 **************************************************************************

                    xk=(   0.40000,   0.30000,   0.70000  )

     Band symmetry, C_1 (1)     point group:

     e(  1 -  1) =     -2.96817  eV     1   --> A              
     e(  2 -  2) =      0.09162  eV     1   --> A              
     e(  3 -  3) =      6.42581  eV     1   --> A              
     e(  4 -  4) =      7.75747  eV     1   --> A              
     e(  5 -  5) =     18.37848  eV     1   --> A              
     e(  6 -  6) =     20.78491  eV     1   --> A              
     e(  7 -  7) =     22.10546  eV     1   --> A              
     e(  8 -  8) =     24.91142  eV     1   --> A              

 **************************************************************************

 **************************************************************************

                    xk=(   0.38750,   0.33750,   0.72500  )

     Band symmetry, C_1 (1)     point group:

     e(  1 -  1) =     -2.80068  eV     1   --> A              
     e(  2 -  2) =     -0.07557  eV     1   --> A              
     e(  3 -  3) =      6.26219  eV     1   --> A              
     e(  4 -  4) =      7.84169  eV     1   --> A              
     e(  5 -  5) =     18.20889  eV     1   --> A              
     e(  6 -  6) =     21.20996  eV     1   --> A              
     e(  7 -  7) =     21.91738  eV     1   --> A              
     e(  8 -  8) =     25.03849  eV     1   --> A              

 **************************************************************************

 **************************************************************************

                    xk=(   0.37500,   0.37500,   0.75000  )

     point group C_s (m)    
     there are  2 classes
     the character table:

       E     s    
A'     1.00  1.00
A''    1.00 -1.00

     the symmetry operations in each class and the name of the first element:

     E        1
                                                                 
     s        2
                                                                 

     Band symmetry, C_s (m)     point group:

     e(  1 -  1) =     -2.71142  eV     1   --> A'             
     e(  2 -  2) =     -0.10331  eV     1   --> A'             
     e(  3 -  3) =      6.04287  eV     1   --> A'             
     e(  4 -  4) =      7.90000  eV     1   --> A''            
     e(  5 -  5) =     18.16826  eV     1   --> A'             
     e(  6 -  6) =     21.51377  eV     1   --> A''            
     e(  7 -  7) =     21.79570  eV     1   --> A'             
     e(  8 -  8) =     25.17096  eV     1   --> A'             

 **************************************************************************

 **************************************************************************

                    xk=(   0.33750,   0.33750,   0.67500  )

     Band symmetry, C_s (m)     point group:

     e(  1 -  1) =     -3.26730  eV     1   --> A'             
     e(  2 -  2) =      0.28880  eV     1   --> A'             
     e(  3 -  3) =      6.76100  eV     1   --> A'             
     e(  4 -  4) =      7.86939  eV     1   --> A''            
     e(  5 -  5) =     18.11055  eV     1   --> A'             
     e(  6 -  6) =     21.36364  eV     1   --> A'             
     e(  7 -  7) =     21.42643  eV     1   --> A''            
     e(  8 -  8) =     24.71193  eV     1   --> A'             

 **************************************************************************

 **************************************************************************

                    xk=(   0.30000,   0.30000,   0.60000  )

     Band symmetry, C_s (m)     point group:

     e(  1 -  1) =     -4.21306  eV     1   --> A'             
     e(  2 -  2) =      1.29866  eV     1   --> A'             
     e(  3 -  3) =      7.50123  eV     1   --> A'             
     e(  4 -  4) =      7.96153  eV     1   --> A''            
     e(  5 -  5) =     18.07881  eV     1   --> A'             
     e(  6 -  6) =     20.92236  eV     1   --> A'             
     e(  7 -  7) =     21.23687  eV     1   --> A''            
     e(  8 -  8) =     24.25401  eV     1   --> A'             

 **************************************************************************

 **************************************************************************

                    xk=(   0.26250,   0.26250,   0.52500  )

     Band symmetry, C_s (m)     point group:

     e(  1 -  1) =     -5.17535  eV     1   --> A'             
     e(  2 -  2) =      2.55339  eV     1   --> A'             
     e(  3 -  3) =      8.17861  eV     1   --> A''            
     e(  4 -  4) =      8.23731  eV     1   --> A'             
     e(  5 -  5) =     18.02343  eV     1   --> A'             
     e(  6 -  6) =     20.46863  eV     1   --> A'             
     e(  7 -  7) =     20.93829  eV     1   --> A''            
     e(  8 -  8) =     23.93711  eV     1   --> A'             

 **************************************************************************

 **************************************************************************

                    xk=(   0.22500,   0.22500,   0.45000  )

     Band symmetry, C_s (m)     point group:

     e(  1 -  1) =     -6.05439  eV     1   --> A'             
     e(  2 -  2) =      3.94553  eV     1   --> A'             
     e(  3 -  3) =      8.51822  eV     1   --> A''            
     e(  4 -  4) =      8.94603  eV     1   --> A'             
     e(  5 -  5) =     17.90052  eV     1   --> A'             
     e(  6 -  6) =     19.99938  eV     1   --> A'             
     e(  7 -  7) =     20.50980  eV     1   --> A''            
     e(  8 -  8) =     23.76974  eV     1   --> A'             

 **************************************************************************

 **************************************************************************

                    xk=(   0.18750,   0.18750,   0.37500  )

     Band symmetry, C_s (m)     point group:

     e(  1 -  1) =     -6.81821  eV     1   --> A'             
     e(  2 -  2) =      5.42643  eV     1   --> A'             
     e(  3 -  3) =      8.97144  eV     1   --> A''            
     e(  4 -  4) =      9.60624  eV     1   --> A'             
     e(  5 -  5) =     17.69854  eV     1   --> A'             
     e(  6 -  6) =     19.50576  eV     1   --> A'             
     e(  7 -  7) =     19.93102  eV     1   --> A''            
     e(  8 -  8) =     23.64824  eV     1   --> A'             

 **************************************************************************

 **************************************************************************

                    xk=(   0.15000,   0.15000,   0.30000  )

     Band symmetry, C_s (m)     point group:

     e(  1 -  1) =     -7.45307  eV     1   --> A'             
     e(  2 -  2) =      6.95329  eV     1   --> A'             
     e(  3 -  3) =      9.52052  eV     1   --> A''            
     e(  4 -  4) =     10.19878  eV     1   --> A'             
     e(  5 -  5) =     17.44284  eV     1   --> A'             
     e(  6 -  6) =     18.96710  eV     1   --> A'             
     e(  7 -  7) =     19.21094  eV     1   --> A''            
     e(  8 -  8) =     23.43116  eV     1   --> A'             

 **************************************************************************

 **************************************************************************

                    xk=(   0.11250,   0.11250,   0.22500  )

     Band symmetry, C_s (m)     point group:

     e(  1 -  1) =     -7.95183  eV     1   --> A'             
     e(  2 -  2) =      8.46856  eV     1   --> A'             
     e(  3 -  3) =     10.13231  eV     1   --> A''            
     e(  4 -  4) =     10.70293  eV     1   --> A'             
     e(  5 -  5) =     17.17747  eV     1   --> A'             
     e(  6 -  6) =     18.35579  eV     1   --> A'             
     e(  7 -  7) =     18.40047  eV     1   --> A''            
     e(  8 -  8) =     23.08901  eV     1   --> A'             

 **************************************************************************

 **************************************************************************

                    xk=(   0.07500,   0.07500,   0.15000  )

     Band symmetry, C_s (m)     point group:

     e(  1 -  1) =     -8.31040  eV     1   --> A'             
     e(  2 -  2) =      9.87492  eV     1   --> A'             
     e(  3 -  3) =     10.74329  eV     1   --> A''            
     e(  4 -  4) =     11.09470  eV     1   --> A'             
     e(  5 -  5) =     16.94639  eV     1   --> A'             
     e(  6 -  6) =     17.60298  eV     1   --> A''            
     e(  7 -  7) =     17.67166  eV     1   --> A'             
     e(  8 -  8) =     22.72545  eV     1   --> A'             

 **************************************************************************

 **************************************************************************

                    xk=(   0.03750,   0.03750,   0.07500  )

     Band symmetry, C_s (m)     point group:

     e(  1 -  1) =     -8.52636  eV     1   --> A'             
     e(  2 -  2) =     10.98060  eV     1   --> A'             
     e(  3 -  3) =     11.23553  eV     1   --> A''            
     e(  4 -  4) =     11.34659  eV     1   --> A'             
     e(  5 -  5) =     16.78888  eV     1   --> A'             
     e(  6 -  6) =     16.97886  eV     1   --> A''            
     e(  7 -  7) =     17.02768  eV     1   --> A'             
     e(  8 -  8) =     22.46365  eV     1   --> A'             

 **************************************************************************

 **************************************************************************

                    xk=(   0.00000,   0.00000,   0.00000  )

     point group O_h (m-3m) 
     there are 10 classes
     the character table:

       E     8C3   3C2   6C4   6C2'  i     8S6   3s_h  6S4   6s_d 
A_1g   1.00  1.00  1.00  1.00  1.00  1.00  1.00  1.00  1.00  1.00
A_2g   1.00  1.00  1.00 -1.00 -1.00  1.00  1.00  1.00 -1.00 -1.00
E_g    2.00 -1.00  2.00  0.00  0.00  2.00 -1.00  2.00  0.00  0.00
T_1g   3.00  0.00 -1.00  1.00 -1.00  3.00  0.00 -1.00  1.00 -1.00
T_2g   3.00  0.00 -1.00 -1.00  1.00  3.00  0.00 -1.00 -1.00  1.00
A_1u   1.00  1.00  1.00  1.00  1.00 -1.00 -1.00 -1.00 -1.00 -1.00
A_2u   1.00  1.00  1.00 -1.00 -1.00 -1.00 -1.00 -1.00  1.00  1.00
E_u    2.00 -1.00  2.00  0.00  0.00 -2.00  1.00 -2.00  0.00  0.00
T_1u   3.00  0.00 -1.00  1.00 -1.00 -3.00  0.00  1.00 -1.00  1.00
T_2u   3.00  0.00 -1.00 -1.00  1.00 -3.00  0.00  1.00  1.00 -1.00

     the symmetry operations in each class and the name of the first element:

     E        1
                                                                 
     8C3     17   19   20   18   24   21   22   23
                                                                 
     3C2      2    4    3
                                                                 
     6C4      7    8   15   16   12   11
                                                                 
     6C2'     5    6   14   13   10    9
                                                                 
     i       25
                                                                 
     8S6     41   43   44   42   48   45   46   47
                                                                 
     3s_h    26   28   27
                                                                 
     6S4     31   32   39   40   36   35
                                                                 
     6s_d    29   30   38   37   34   33
                                                                 

     Band symmetry, O_h (m-3m)  point group:

     e(  1 -  1) =     -8.59848  eV     1   --> A_1g G_1   G_1+
     e(  2 -  4) =     11.43403  eV     3   --> T_2g G_25' G_5+
     e(  5 -  7) =     16.73270  eV     3   --> T_1u G_15  G_4-
     e(  8 -  8) =     22.37051  eV     1   --> A_2u G_2'  G_2-

 **************************************************************************

 **************************************************************************

                    xk=(   0.05000,   0.05000,   0.05000  )

     point group C_3v (3m)  
     there are  3 classes
     the character table:

       E     2C3   3s_v 
A_1    1.00  1.00  1.00
A_2    1.00  1.00 -1.00
E      2.00 -1.00  0.00

     the symmetry operations in each class and the name of the first element:

     E        1
                                                                 
     2C3      2    3
                                                                 
     3s_v     4    5    6
                                                                 

     Band symmetry, C_3v (3m)   point group:

     e(  1 -  1) =     -8.53438  eV     1   --> A_1  L_1       
     e(  2 -  2) =     10.99146  eV     1   --> A_1  L_1       
     e(  3 -  4) =     11.32529  eV     2   --> E    L_3       
     e(  5 -  6) =     16.87465  eV     2   --> E    L_3       
     e(  7 -  7) =     16.98144  eV     1   --> A_1  L_1       
     e(  8 -  8) =     22.45497  eV     1   --> A_1  L_1       

 **************************************************************************

 **************************************************************************

                    xk=(   0.10000,   0.10000,   0.10000  )

     Band symmetry, C_3v (3m)   point group:

     e(  1 -  1) =     -8.34238  eV     1   --> A_1  L_1       
     e(  2 -  2) =      9.89627  eV     1   --> A_1  L_1       
     e(  3 -  4) =     11.03948  eV     2   --> E    L_3       
     e(  5 -  6) =     17.25076  eV     2   --> E    L_3       
     e(  7 -  7) =     17.50402  eV     1   --> A_1  L_1       
     e(  8 -  8) =     22.71234  eV     1   --> A_1  L_1       

 **************************************************************************

 **************************************************************************

                    xk=(   0.15000,   0.15000,   0.15000  )

     Band symmetry, C_3v (3m)   point group:

     e(  1 -  1) =     -8.02352  eV     1   --> A_1  L_1       
     e(  2 -  2) =      8.48006  eV     1   --> A_1  L_1       
     e(  3 -  4) =     10.65864  eV     2   --> E    L_3       
     e(  5 -  6) =     17.75311  eV     2   --> E    L_3       
     e(  7 -  7) =     18.00180  eV     1   --> A_1  L_1       
     e(  8 -  8) =     23.13795  eV     1   --> A_1  L_1       

 **************************************************************************

 **************************************************************************

                    xk=(   0.20000,   0.20000,   0.20000  )

     Band symmetry, C_3v (3m)   point group:

     e(  1 -  1) =     -7.57982  eV     1   --> A_1  L_1       
     e(  2 -  2) =      6.93151  eV     1   --> A_1  L_1       
     e(  3 -  4) =     10.25322  eV     2   --> E    L_3       
     e(  5 -  6) =     18.27235  eV     2   --> E    L_3       
     e(  7 -  7) =     18.36076  eV     1   --> A_1  L_1       
     e(  8 -  8) =     23.69320  eV     1   --> A_1  L_1       

 **************************************************************************

 **************************************************************************

                    xk=(   0.25000,   0.25000,   0.25000  )

     Band symmetry, C_3v (3m)   point group:

     e(  1 -  1) =     -7.01475  eV     1   --> A_1  L_1       
     e(  2 -  2) =      5.34783  eV     1   --> A_1  L_1       
     e(  3 -  4) =      9.86987  eV     2   --> E    L_3       
     e(  5 -  5) =     18.58939  eV     1   --> A_1  L_1       
     e(  6 -  7) =     18.72321  eV     2   --> E    L_3       
     e(  8 -  8) =     24.31086  eV     1   --> A_1  L_1       

 **************************************************************************

 **************************************************************************

                    xk=(   0.30000,   0.30000,   0.30000  )

     Band symmetry, C_3v (3m)   point group:

     e(  1 -  1) =     -6.33443  eV     1   --> A_1  L_1       
     e(  2 -  2) =      3.78829  eV     1   --> A_1  L_1       
     e(  3 -  4) =      9.53498  eV     2   --> E    L_3       
     e(  5 -  5) =     18.72685  eV     1   --> A_1  L_1       
     e(  6 -  7) =     19.05840  eV     2   --> E    L_3       
     e(  8 -  8) =     24.91353  eV     1   --> A_1  L_1       

 **************************************************************************

 **************************************************************************

                    xk=(   0.35000,   0.35000,   0.35000  )

     Band symmetry, C_3v (3m)   point group:

     e(  1 -  1) =     -5.55121  eV     1   --> A_1  L_1       
     e(  2 -  2) =      2.29634  eV     1   --> A_1  L_1       
     e(  3 -  4) =      9.26434  eV     2   --> E    L_3       
     e(  5 -  5) =     18.80747  eV     1   --> A_1  L_1       
     e(  6 -  7) =     19.26992  eV     2   --> E    L_3       
     e(  8 -  8) =     25.42857  eV     1   --> A_1  L_1       

 **************************************************************************

 **************************************************************************

                    xk=(   0.40000,   0.40000,   0.40000  )

     Band symmetry, C_3v (3m)   point group:

     e(  1 -  1) =     -4.69475  eV     1   --> A_1  L_1       
     e(  2 -  2) =      0.92184  eV     1   --> A_1  L_1       
     e(  3 -  4) =      9.06664  eV     2   --> E    L_3       
     e(  5 -  5) =     18.85379  eV     1   --> A_1  L_1       
     e(  6 -  7) =     19.38216  eV     2   --> E    L_3       
     e(  8 -  8) =     25.80174  eV     1   --> A_1  L_1       

 **************************************************************************

 **************************************************************************

                    xk=(   0.45000,   0.45000,   0.45000  )

     Band symmetry, C_3v (3m)   point group:

     e(  1 -  1) =     -3.86128  eV     1   --> A_1  L_1       
     e(  2 -  2) =     -0.22700  eV     1   --> A_1  L_1       
     e(  3 -  4) =      8.94654  eV     2   --> E    L_3       
     e(  5 -  5) =     18.87803  eV     1   --> A_1  L_1       
     e(  6 -  7) =     19.43058  eV     2   --> E    L_3       
     e(  8 -  8) =     26.01501  eV     1   --> A_1  L_1       

 **************************************************************************

 **************************************************************************

                    xk=(   0.50000,   0.50000,   0.50000  )

     zone border point and non-symmorphic group 
     symmetry decomposition not available

 **************************************************************************

 **************************************************************************

                    xk=(   0.47500,   0.47500,   0.47500  )

     point group C_3v (3m)  
     there are  3 classes
     the character table:

       E     2C3   3s_v 
A_1    1.00  1.00  1.00
A_2    1.00  1.00 -1.00
E      2.00 -1.00  0.00

     the symmetry operations in each class and the name of the first element:

     E        1
                                                                 
     2C3      2    3
                                                                 
     3s_v     4    5    6
                                                                 

     Band symmetry, C_3v (3m)   point group:

     e(  1 -  1) =     -3.54909  eV     1   --> A_1  L_1       
     e(  2 -  2) =     -0.61852  eV     1   --> A_1  L_1       
     e(  3 -  4) =      8.91637  eV     2   --> E    L_3       
     e(  5 -  5) =     18.88369  eV     1   --> A_1  L_1       
     e(  6 -  7) =     19.44027  eV     2   --> E    L_3       
     e(  8 -  8) =     26.06581  eV     1   --> A_1  L_1       

 **************************************************************************

 **************************************************************************

                    xk=(   0.45000,   0.45000,   0.45000  )

     Band symmetry, C_3v (3m)   point group:

     e(  1 -  1) =     -3.86128  eV     1   --> A_1  L_1       
     e(  2 -  2) =     -0.22700  eV     1   --> A_1  L_1       
     e(  3 -  4) =      8.94654  eV     2   --> E    L_3       
     e(  5 -  5) =     18.87803  eV     1   --> A_1  L_1       
     e(  6 -  7) =     19.43058  eV     2   --> E    L_3       
     e(  8 -  8) =     26.01501  eV     1   --> A_1  L_1       

 **************************************************************************

 **************************************************************************

                    xk=(   0.42500,   0.42500,   0.42500  )

     Band symmetry, C_3v (3m)   point group:

     e(  1 -  1) =     -4.26280  eV     1   --> A_1  L_1       
     e(  2 -  2) =      0.30637  eV     1   --> A_1  L_1       
     e(  3 -  4) =      8.99670  eV     2   --> E    L_3       
     e(  5 -  5) =     18.86820  eV     1   --> A_1  L_1       
     e(  6 -  7) =     19.41228  eV     2   --> E    L_3       
     e(  8 -  8) =     25.92771  eV     1   --> A_1  L_1       

 **************************************************************************

 **************************************************************************

                    xk=(   0.40000,   0.40000,   0.40000  )

     Band symmetry, C_3v (3m)   point group:

     e(  1 -  1) =     -4.69475  eV     1   --> A_1  L_1       
     e(  2 -  2) =      0.92184  eV     1   --> A_1  L_1       
     e(  3 -  4) =      9.06664  eV     2   --> E    L_3       
     e(  5 -  5) =     18.85379  eV     1   --> A_1  L_1       
     e(  6 -  7) =     19.38216  eV     2   --> E    L_3       
     e(  8 -  8) =     25.80174  eV     1   --> A_1  L_1       

 **************************************************************************

 **************************************************************************

                    xk=(   0.37500,   0.37500,   0.37500  )

     Band symmetry, C_3v (3m)   point group:

     e(  1 -  1) =     -5.12884  eV     1   --> A_1  L_1       
     e(  2 -  2) =      1.59024  eV     1   --> A_1  L_1       
     e(  3 -  4) =      9.15603  eV     2   --> E    L_3       
     e(  5 -  5) =     18.83405  eV     1   --> A_1  L_1       
     e(  6 -  7) =     19.33624  eV     2   --> E    L_3       
     e(  8 -  8) =     25.63605  eV     1   --> A_1  L_1       

 **************************************************************************

 **************************************************************************

                    xk=(   0.35000,   0.35000,   0.35000  )

     Band symmetry, C_3v (3m)   point group:

     e(  1 -  1) =     -5.55121  eV     1   --> A_1  L_1       
     e(  2 -  2) =      2.29634  eV     1   --> A_1  L_1       
     e(  3 -  4) =      9.26434  eV     2   --> E    L_3       
     e(  5 -  5) =     18.80747  eV     1   --> A_1  L_1       
     e(  6 -  7) =     19.26992  eV     2   --> E    L_3       
     e(  8 -  8) =     25.42857  eV     1   --> A_1  L_1       

 **************************************************************************

 **************************************************************************

                    xk=(   0.32500,   0.32500,   0.32500  )

     Band symmetry, C_3v (3m)   point group:

     e(  1 -  1) =     -5.95449  eV     1   --> A_1  L_1       
     e(  2 -  2) =      3.03118  eV     1   --> A_1  L_1       
     e(  3 -  4) =      9.39097  eV     2   --> E    L_3       
     e(  5 -  5) =     18.77246  eV     1   --> A_1  L_1       
     e(  6 -  7) =     19.17859  eV     2   --> E    L_3       
     e(  8 -  8) =     25.18604  eV     1   --> A_1  L_1       

 **************************************************************************

 **************************************************************************

                    xk=(   0.30000,   0.30000,   0.30000  )

     Band symmetry, C_3v (3m)   point group:

     e(  1 -  1) =     -6.33443  eV     1   --> A_1  L_1       
     e(  2 -  2) =      3.78829  eV     1   --> A_1  L_1       
     e(  3 -  4) =      9.53498  eV     2   --> E    L_3       
     e(  5 -  5) =     18.72685  eV     1   --> A_1  L_1       
     e(  6 -  7) =     19.05840  eV     2   --> E    L_3       
     e(  8 -  8) =     24.91353  eV     1   --> A_1  L_1       

 **************************************************************************

 **************************************************************************

                    xk=(   0.27500,   0.27500,   0.27500  )

     Band symmetry, C_3v (3m)   point group:

     e(  1 -  1) =     -6.68842  eV     1   --> A_1  L_1       
     e(  2 -  2) =      4.56223  eV     1   --> A_1  L_1       
     e(  3 -  4) =      9.69516  eV     2   --> E    L_3       
     e(  5 -  5) =     18.66718  eV     1   --> A_1  L_1       
     e(  6 -  7) =     18.90681  eV     2   --> E    L_3       
     e(  8 -  8) =     24.61880  eV     1   --> A_1  L_1       

 **************************************************************************

 **************************************************************************

                    xk=(   0.25000,   0.25000,   0.25000  )

     Band symmetry, C_3v (3m)   point group:

     e(  1 -  1) =     -7.01475  eV     1   --> A_1  L_1       
     e(  2 -  2) =      5.34783  eV     1   --> A_1  L_1       
     e(  3 -  4) =      9.86987  eV     2   --> E    L_3       
     e(  5 -  5) =     18.58939  eV     1   --> A_1  L_1       
     e(  6 -  7) =     18.72321  eV     2   --> E    L_3       
     e(  8 -  8) =     24.31086  eV     1   --> A_1  L_1       

 **************************************************************************

     BANDS        :      0.38s CPU      0.42s WALL


   This run was terminated on:  14:35: 7   6Oct2024            

=------------------------------------------------------------------------------=
   JOB DONE.
=------------------------------------------------------------------------------=
