
     Program PWSCF v.6.2 starts on 23May2019 at 12:47:41 

     This program is part of the open-source Quantum ESPRESSO suite
     for quantum simulation of materials; please cite
         "P. Giannozzi et al., J. Phys.:Condens. Matter 21 395502 (2009);
         "P. Giannozzi et al., J. Phys.:Condens. Matter 29 465901 (2017);
          URL http://www.quantum-espresso.org", 
     in publications or presentations arising from this work. More details at
     http://www.quantum-espresso.org/quote

     Serial version
     Waiting for input...
     Reading input from standard input

     Current dimensions of program PWSCF are:
     Max number of different atomic species (ntypx) = 10
     Max number of k-points (npk) =  40000
     Max angular momentum in pseudopotentials (lmaxx) =  3

     gamma-point specific algorithms are used

     G-vector sticks info
     --------------------
     sticks:   dense  smooth     PW     G-vecs:    dense   smooth      PW
     Sum        3641    2917    725               164853   118265   14771



     bravais-lattice index     =            1
     lattice parameter (alat)  =      15.1178  a.u.
     unit-cell volume          =    3455.1465 (a.u.)^3
     number of atoms/cell      =            3
     number of atomic types    =            2
     number of electrons       =         8.00
     number of Kohn-Sham states=            4
     kinetic-energy cutoff     =      40.0000  Ry
     charge density cutoff     =     200.0000  Ry
     convergence threshold     =      1.0E-08
     mixing beta               =       0.7000
     number of iterations used =            8  plain     mixing
     Exchange-correlation      =  SLA  PW   PBX  PBC ( 1  4  3  4 0 0)
     nstep                     =           50


     celldm(1)=  15.117808  celldm(2)=   0.000000  celldm(3)=   0.000000
     celldm(4)=   0.000000  celldm(5)=   0.000000  celldm(6)=   0.000000

     crystal axes: (cart. coord. in units of alat)
               a(1) = (   1.000000   0.000000   0.000000 )  
               a(2) = (   0.000000   1.000000   0.000000 )  
               a(3) = (   0.000000   0.000000   1.000000 )  

     reciprocal axes: (cart. coord. in units 2 pi/alat)
               b(1) = (  1.000000  0.000000  0.000000 )  
               b(2) = (  0.000000  1.000000  0.000000 )  
               b(3) = (  0.000000  0.000000  1.000000 )  


     PseudoPot. # 1 for O  read from file:
     ./o_pbe_v1.2.uspp.F.UPF
     MD5 check sum: 734c27235a0248c51dbae37a1fbe46ec
     Pseudo is Ultrasoft + core correction, Zval =  6.0
     Generated by new atomic code, or converted to UPF format
     Using radial grid of  737 points,  5 beta functions with: 
                l(1) =   0
                l(2) =   0
                l(3) =   1
                l(4) =   1
                l(5) =   2
     Q(r) pseudized with  8 coefficients,  rinner =    0.900   0.900   0.900
                                                       0.900   0.900

     PseudoPot. # 2 for H  read from file:
     ./h_pbe_v1.4.uspp.F.UPF
     MD5 check sum: 761ae9a214b05c3daf00ab9f6b793d6f
     Pseudo is Ultrasoft, Zval =  1.0
     Generated by new atomic code, or converted to UPF format
     Using radial grid of  615 points,  2 beta functions with: 
                l(1) =   0
                l(2) =   0
     Q(r) pseudized with  8 coefficients,  rinner =    0.700

     atomic species   valence    mass     pseudopotential
        O              6.00    16.00000     O ( 1.00)
        H              1.00     1.00000     H ( 1.00)

      4 Sym. Ops. (no inversion) found


                                    s                        frac. trans.

      isym =  1     identity                                     

 cryst.   s( 1) = (     1          0          0      )
                  (     0          1          0      )
                  (     0          0          1      )

 cart.    s( 1) = (  1.0000000  0.0000000  0.0000000 )
                  (  0.0000000  1.0000000  0.0000000 )
                  (  0.0000000  0.0000000  1.0000000 )


      isym =  2     180 deg rotation - cart. axis [0,0,1]        

 cryst.   s( 2) = (    -1          0          0      )
                  (     0         -1          0      )
                  (     0          0          1      )

 cart.    s( 2) = ( -1.0000000  0.0000000  0.0000000 )
                  (  0.0000000 -1.0000000  0.0000000 )
                  (  0.0000000  0.0000000  1.0000000 )


      isym =  3     inv. 180 deg rotation - cart. axis [0,1,0]   

 cryst.   s( 3) = (     1          0          0      )
                  (     0         -1          0      )
                  (     0          0          1      )

 cart.    s( 3) = (  1.0000000  0.0000000  0.0000000 )
                  (  0.0000000 -1.0000000  0.0000000 )
                  (  0.0000000  0.0000000  1.0000000 )


      isym =  4     inv. 180 deg rotation - cart. axis [1,0,0]   

 cryst.   s( 4) = (    -1          0          0      )
                  (     0          1          0      )
                  (     0          0          1      )

 cart.    s( 4) = ( -1.0000000  0.0000000  0.0000000 )
                  (  0.0000000  1.0000000  0.0000000 )
                  (  0.0000000  0.0000000  1.0000000 )


     point group C_2v (mm2) 
     there are  4 classes
     the character table:

       E     C2    s_v   s_v' 
A_1    1.00  1.00  1.00  1.00
A_2    1.00  1.00 -1.00 -1.00
B_1    1.00 -1.00  1.00 -1.00
B_2    1.00 -1.00 -1.00  1.00

     the symmetry operations in each class and the name of the first element:

     E        1
          identity                                               
     C2       2
          180 deg rotation - cart. axis [0,0,1]                  
     s_v      4
          inv. 180 deg rotation - cart. axis [1,0,0]             
     s_v'     3
          inv. 180 deg rotation - cart. axis [0,1,0]             

   Cartesian axes

     site n.     atom                  positions (alat units)
         1           O   tau(   1) = (   0.5000000   0.5000000   0.5000000  )
         2           H   tau(   2) = (   0.3750000   0.5000000   0.6250000  )
         3           H   tau(   3) = (   0.6250000   0.5000000   0.6250000  )

   Crystallographic axes

     site n.     atom                  positions (cryst. coord.)
         1           O   tau(   1) = (  0.5000000  0.5000000  0.5000000  )
         2           H   tau(   2) = (  0.3750000  0.5000000  0.6250000  )
         3           H   tau(   3) = (  0.6250000  0.5000000  0.6250000  )

     number of k points=     1
                       cart. coord. in units 2pi/alat
        k(    1) = (   0.0000000   0.0000000   0.0000000), wk =   2.0000000

                       cryst. coord.
        k(    1) = (   0.0000000   0.0000000   0.0000000), wk =   2.0000000

     Dense  grid:    82427 G-vectors     FFT dimensions: (  72,  72,  72)

     Smooth grid:    59133 G-vectors     FFT dimensions: (  64,  64,  64)

     Dynamical RAM for                 wfc:       0.45 MB

     Dynamical RAM for     wfc (w. buffer):       0.45 MB

     Dynamical RAM for           str. fact:       2.52 MB

     Dynamical RAM for           local pot:       0.00 MB

     Dynamical RAM for          nlocal pot:       1.91 MB

     Dynamical RAM for                qrad:       3.90 MB

     Dynamical RAM for          rho,v,vnew:      12.32 MB

     Dynamical RAM for               rhoin:       4.11 MB

     Dynamical RAM for            rho*nmix:      20.12 MB

     Dynamical RAM for           G-vectors:       5.17 MB

     Dynamical RAM for          h,s,v(r/c):       0.01 MB

     Dynamical RAM for          <psi|beta>:       0.00 MB

     Dynamical RAM for                 psi:       1.80 MB

     Dynamical RAM for                hpsi:       1.80 MB

     Dynamical RAM for                spsi:       1.80 MB

     Dynamical RAM for      wfcinit/wfcrot:       1.35 MB

     Dynamical RAM for           addusdens:     135.84 MB

     Dynamical RAM for          addusforce:     142.76 MB

     Estimated static dynamical RAM per process >      68.50 MB

     Estimated max dynamical RAM per process >     211.26 MB

     Initial potential from superposition of free atoms
     Check: negative starting charge=   -0.000119

     starting charge    7.99998, renormalised to    8.00000

     negative rho (up, down):  1.189E-04 0.000E+00
     Starting wfc are    6 randomized atomic wfcs

     total cpu time spent up to now is        1.7 secs

     Self-consistent Calculation

     iteration #  1     ecut=    40.00 Ry     beta= 0.70
     Davidson diagonalization with overlap
     ethr =  1.00E-02,  avg # of iterations =  2.0

     negative rho (up, down):  4.188E-04 0.000E+00

     total cpu time spent up to now is        2.5 secs

     total energy              =     -34.12749006 Ry
     Harris-Foulkes estimate   =     -34.48374980 Ry
     estimated scf accuracy    <       0.47486009 Ry

     iteration #  2     ecut=    40.00 Ry     beta= 0.70
     Davidson diagonalization with overlap
     ethr =  5.94E-03,  avg # of iterations =  3.0

     negative rho (up, down):  6.220E-04 0.000E+00

     total cpu time spent up to now is        3.4 secs

     total energy              =     -34.01715019 Ry
     Harris-Foulkes estimate   =     -34.83371915 Ry
     estimated scf accuracy    <       2.58265481 Ry

     iteration #  3     ecut=    40.00 Ry     beta= 0.70
     Davidson diagonalization with overlap
     ethr =  5.94E-03,  avg # of iterations =  3.0

     negative rho (up, down):  6.575E-04 0.000E+00

     total cpu time spent up to now is        4.3 secs

     total energy              =     -34.38400244 Ry
     Harris-Foulkes estimate   =     -34.38724894 Ry
     estimated scf accuracy    <       0.00872021 Ry

     iteration #  4     ecut=    40.00 Ry     beta= 0.70
     Davidson diagonalization with overlap
     ethr =  1.09E-04,  avg # of iterations =  2.0

     negative rho (up, down):  7.114E-04 0.000E+00

     total cpu time spent up to now is        5.2 secs

     total energy              =     -34.38526736 Ry
     Harris-Foulkes estimate   =     -34.38535336 Ry
     estimated scf accuracy    <       0.00022904 Ry

     iteration #  5     ecut=    40.00 Ry     beta= 0.70
     Davidson diagonalization with overlap
     ethr =  2.86E-06,  avg # of iterations =  2.0

     negative rho (up, down):  7.701E-04 0.000E+00

     total cpu time spent up to now is        6.1 secs

     total energy              =     -34.38532665 Ry
     Harris-Foulkes estimate   =     -34.38533033 Ry
     estimated scf accuracy    <       0.00001673 Ry

     iteration #  6     ecut=    40.00 Ry     beta= 0.70
     Davidson diagonalization with overlap
     ethr =  2.09E-07,  avg # of iterations =  2.0

     negative rho (up, down):  7.927E-04 0.000E+00

     total cpu time spent up to now is        7.0 secs

     total energy              =     -34.38532735 Ry
     Harris-Foulkes estimate   =     -34.38532888 Ry
     estimated scf accuracy    <       0.00000569 Ry

     iteration #  7     ecut=    40.00 Ry     beta= 0.70
     Davidson diagonalization with overlap
     ethr =  7.11E-08,  avg # of iterations =  1.0

     negative rho (up, down):  7.987E-04 0.000E+00

     total cpu time spent up to now is        7.8 secs

     total energy              =     -34.38532725 Ry
     Harris-Foulkes estimate   =     -34.38532768 Ry
     estimated scf accuracy    <       0.00000116 Ry

     iteration #  8     ecut=    40.00 Ry     beta= 0.70
     Davidson diagonalization with overlap
     ethr =  1.46E-08,  avg # of iterations =  3.0

     negative rho (up, down):  7.992E-04 0.000E+00

     total cpu time spent up to now is        8.7 secs

     total energy              =     -34.38532775 Ry
     Harris-Foulkes estimate   =     -34.38532792 Ry
     estimated scf accuracy    <       0.00000087 Ry

     iteration #  9     ecut=    40.00 Ry     beta= 0.70
     Davidson diagonalization with overlap
     ethr =  1.08E-08,  avg # of iterations =  1.0

     negative rho (up, down):  7.994E-04 0.000E+00

     total cpu time spent up to now is        9.6 secs

     total energy              =     -34.38532775 Ry
     Harris-Foulkes estimate   =     -34.38532779 Ry
     estimated scf accuracy    <       0.00000023 Ry

     iteration # 10     ecut=    40.00 Ry     beta= 0.70
     Davidson diagonalization with overlap
     ethr =  2.88E-09,  avg # of iterations =  3.0

     negative rho (up, down):  7.996E-04 0.000E+00

     total cpu time spent up to now is       10.5 secs

     total energy              =     -34.38532778 Ry
     Harris-Foulkes estimate   =     -34.38532778 Ry
     estimated scf accuracy    <       0.00000001 Ry

     iteration # 11     ecut=    40.00 Ry     beta= 0.70
     Davidson diagonalization with overlap
     ethr =  1.75E-10,  avg # of iterations =  3.0

     negative rho (up, down):  7.996E-04 0.000E+00

     total cpu time spent up to now is       11.3 secs

     End of self-consistent calculation

          k = 0.0000 0.0000 0.0000 (  7386 PWs)   bands (ev):

   -22.2716  -9.5299  -9.1199  -6.4928

     occupation numbers 
     1.0000   1.0000   1.0000   1.0000

     highest occupied level (ev):    -6.4928

!    total energy              =     -34.38532778 Ry
     Harris-Foulkes estimate   =     -34.38532778 Ry
     estimated scf accuracy    <          2.0E-10 Ry

     The total energy is the sum of the following terms:

     one-electron contribution =     -51.03605094 Ry
     hartree contribution      =      27.16884537 Ry
     xc contribution           =      -8.13787366 Ry
     ewald contribution        =      -2.38024855 Ry

     convergence has been achieved in  11 iterations

     negative rho (up, down):  7.996E-04 0.000E+00

     Forces acting on atoms (cartesian axes, Ry/au):

     atom    1 type  1   force =     0.00000000    0.00000000    0.30729387
     atom    2 type  2   force =     0.15030206    0.00000000   -0.15364694
     atom    3 type  2   force =    -0.15030206    0.00000000   -0.15364694
     The non-local contrib.  to forces
     atom    1 type  1   force =     0.00000000    0.00000000    1.64796125
     atom    2 type  2   force =     0.04801964    0.00000000   -0.04460515
     atom    3 type  2   force =    -0.04801964    0.00000000   -0.04460515
     The ionic contribution  to forces
     atom    1 type  1   force =     0.00000000    0.00000000   -2.32247806
     atom    2 type  2   force =    -1.29034565   -0.00000000    1.16123903
     atom    3 type  2   force =     1.29034565   -0.00000000    1.16123903
     The local contribution  to forces
     atom    1 type  1   force =     0.00000283    0.00000036    0.99523103
     atom    2 type  2   force =     1.39262625    0.00000003   -1.27028250
     atom    3 type  2   force =    -1.39262672    0.00000003   -1.27028290
     The core correction contribution to forces
     atom    1 type  1   force =     0.00000002   -0.00000000   -0.01342354
     atom    2 type  2   force =     0.00000000    0.00000000    0.00000000
     atom    3 type  2   force =     0.00000000    0.00000000    0.00000000
     The Hubbard contrib.    to forces
     atom    1 type  1   force =     0.00000000    0.00000000    0.00000000
     atom    2 type  2   force =     0.00000000    0.00000000    0.00000000
     atom    3 type  2   force =     0.00000000    0.00000000    0.00000000
     The SCF correction term to forces
     atom    1 type  1   force =    -0.00000134   -0.00000037   -0.00000080
     atom    2 type  2   force =     0.00000171   -0.00000002   -0.00000221
     atom    3 type  2   force =    -0.00000149   -0.00000002   -0.00000199

     Total force =     0.432233     Total SCF correction =     0.000004

     BFGS Geometry Optimization

     number of scf cycles    =   1
     number of bfgs steps    =   0

     energy   new            =     -34.3853277803 Ry

     new trust radius        =       0.3072938702 bohr
     new conv_thr            =       0.0000000100 Ry


ATOMIC_POSITIONS (angstrom)
O        4.000000000   4.000000000   4.162612912
H        3.079536426   4.000000000   4.918693544
H        4.920463574   4.000000000   4.918693544



     Writing output data file h2o.save
     Check: negative starting charge=   -0.000119
     NEW-OLD atomic charge density approx. for the potential
     Check: negative starting charge=   -0.000125

     negative rho (up, down):  1.204E-03 0.000E+00

     total cpu time spent up to now is       12.6 secs

     Self-consistent Calculation

     iteration #  1     ecut=    40.00 Ry     beta= 0.70
     Davidson diagonalization with overlap
     ethr =  1.00E-06,  avg # of iterations =  7.0

     negative rho (up, down):  7.134E-04 0.000E+00

     total cpu time spent up to now is       13.6 secs

     total energy              =     -34.53988485 Ry
     Harris-Foulkes estimate   =     -34.57542276 Ry
     estimated scf accuracy    <       0.05208789 Ry

     iteration #  2     ecut=    40.00 Ry     beta= 0.70
     Davidson diagonalization with overlap
     ethr =  6.51E-04,  avg # of iterations =  3.0

     negative rho (up, down):  9.139E-04 0.000E+00

     total cpu time spent up to now is       14.5 secs

     total energy              =     -34.54186316 Ry
     Harris-Foulkes estimate   =     -34.59174726 Ry
     estimated scf accuracy    <       0.12702412 Ry

     iteration #  3     ecut=    40.00 Ry     beta= 0.70
     Davidson diagonalization with overlap
     ethr =  6.51E-04,  avg # of iterations =  3.0

     negative rho (up, down):  7.906E-04 0.000E+00

     total cpu time spent up to now is       15.4 secs

     total energy              =     -34.56456442 Ry
     Harris-Foulkes estimate   =     -34.56460380 Ry
     estimated scf accuracy    <       0.00052997 Ry

     iteration #  4     ecut=    40.00 Ry     beta= 0.70
     Davidson diagonalization with overlap
     ethr =  6.62E-06,  avg # of iterations =  2.0

     negative rho (up, down):  8.201E-04 0.000E+00

     total cpu time spent up to now is       16.3 secs

     total energy              =     -34.56471429 Ry
     Harris-Foulkes estimate   =     -34.56471953 Ry
     estimated scf accuracy    <       0.00002306 Ry

     iteration #  5     ecut=    40.00 Ry     beta= 0.70
     Davidson diagonalization with overlap
     ethr =  2.88E-07,  avg # of iterations =  3.0

     negative rho (up, down):  8.297E-04 0.000E+00

     total cpu time spent up to now is       17.2 secs

     total energy              =     -34.56471971 Ry
     Harris-Foulkes estimate   =     -34.56472014 Ry
     estimated scf accuracy    <       0.00000238 Ry

     iteration #  6     ecut=    40.00 Ry     beta= 0.70
     Davidson diagonalization with overlap
     ethr =  2.98E-08,  avg # of iterations =  2.0

     negative rho (up, down):  8.331E-04 0.000E+00

     total cpu time spent up to now is       18.0 secs

     total energy              =     -34.56471990 Ry
     Harris-Foulkes estimate   =     -34.56471996 Ry
     estimated scf accuracy    <       0.00000018 Ry

     iteration #  7     ecut=    40.00 Ry     beta= 0.70
     Davidson diagonalization with overlap
     ethr =  2.29E-09,  avg # of iterations =  2.0

     negative rho (up, down):  8.343E-04 0.000E+00

     total cpu time spent up to now is       18.9 secs

     total energy              =     -34.56471995 Ry
     Harris-Foulkes estimate   =     -34.56471996 Ry
     estimated scf accuracy    <       0.00000001 Ry

     iteration #  8     ecut=    40.00 Ry     beta= 0.70
     Davidson diagonalization with overlap
     ethr =  1.33E-10,  avg # of iterations =  2.0

     negative rho (up, down):  8.347E-04 0.000E+00

     total cpu time spent up to now is       19.7 secs

     End of self-consistent calculation

          k = 0.0000 0.0000 0.0000 (  7386 PWs)   bands (ev):

   -23.1665 -11.0217  -8.9354  -6.6332

     occupation numbers 
     1.0000   1.0000   1.0000   1.0000

     highest occupied level (ev):    -6.6332

!    total energy              =     -34.56471994 Ry
     Harris-Foulkes estimate   =     -34.56471995 Ry
     estimated scf accuracy    <          1.6E-09 Ry

     The total energy is the sum of the following terms:

     one-electron contribution =     -54.28713882 Ry
     hartree contribution      =      28.76903763 Ry
     xc contribution           =      -8.36100807 Ry
     ewald contribution        =      -0.68561069 Ry

     convergence has been achieved in   8 iterations

     negative rho (up, down):  8.347E-04 0.000E+00

     Forces acting on atoms (cartesian axes, Ry/au):

     atom    1 type  1   force =     0.00000000    0.00000000    0.23914108
     atom    2 type  2   force =     0.16204560    0.00000000   -0.11957054
     atom    3 type  2   force =    -0.16204560    0.00000000   -0.11957054
     The non-local contrib.  to forces
     atom    1 type  1   force =     0.00000000    0.00000000    1.98465663
     atom    2 type  2   force =     0.10030253    0.00000000   -0.07428557
     atom    3 type  2   force =    -0.10030253    0.00000000   -0.07428557
     The ionic contribution  to forces
     atom    1 type  1   force =     0.00000000   -0.00000000   -2.96622058
     atom    2 type  2   force =    -1.96021413    0.00000000    1.48311029
     atom    3 type  2   force =     1.96021413   -0.00000000    1.48311029
     The local contribution  to forces
     atom    1 type  1   force =     0.00000000   -0.00000000    1.23489193
     atom    2 type  2   force =     2.02195871    0.00000000   -1.52840595
     atom    3 type  2   force =    -2.02195871   -0.00000000   -1.52840595
     The core correction contribution to forces
     atom    1 type  1   force =     0.00000000    0.00000000   -0.01427926
     atom    2 type  2   force =     0.00000000    0.00000000    0.00000000
     atom    3 type  2   force =     0.00000000    0.00000000    0.00000000
     The Hubbard contrib.    to forces
     atom    1 type  1   force =     0.00000000    0.00000000    0.00000000
     atom    2 type  2   force =     0.00000000    0.00000000    0.00000000
     atom    3 type  2   force =     0.00000000    0.00000000    0.00000000
     The SCF correction term to forces
     atom    1 type  1   force =    -0.00000000   -0.00000000    0.00008877
     atom    2 type  2   force =    -0.00000152   -0.00000000    0.00000710
     atom    3 type  2   force =     0.00000152   -0.00000000    0.00000710

     Total force =     0.371887     Total SCF correction =     0.000089

     number of scf cycles    =   2
     number of bfgs steps    =   1

     energy   old            =     -34.3853277803 Ry
     energy   new            =     -34.5647199440 Ry

     CASE: energy  _new < energy  _old


     WARNING: bfgs curvature condition failed, Theta= 0.940
     new trust radius        =       0.3380232572 bohr
     new conv_thr            =       0.0000000100 Ry


ATOMIC_POSITIONS (angstrom)
O        4.000000000   4.000000000   4.341487116
H        3.194850212   4.000000000   4.829256442
H        4.805149788   4.000000000   4.829256442



     Writing output data file h2o.save
     Check: negative starting charge=   -0.000125
     NEW-OLD atomic charge density approx. for the potential
     Check: negative starting charge=   -0.000131

     negative rho (up, down):  3.919E-03 0.000E+00

     total cpu time spent up to now is       21.0 secs

     Self-consistent Calculation

     iteration #  1     ecut=    40.00 Ry     beta= 0.70
     Davidson diagonalization with overlap
     ethr =  1.00E-06,  avg # of iterations =  7.0

     negative rho (up, down):  1.112E-03 0.000E+00

     total cpu time spent up to now is       22.0 secs

     total energy              =     -34.60502351 Ry
     Harris-Foulkes estimate   =     -34.68775268 Ry
     estimated scf accuracy    <       0.11623289 Ry

     iteration #  2     ecut=    40.00 Ry     beta= 0.70
     Davidson diagonalization with overlap
     ethr =  1.45E-03,  avg # of iterations =  2.0

     negative rho (up, down):  1.066E-03 0.000E+00

     total cpu time spent up to now is       22.9 secs

     total energy              =     -34.63004194 Ry
     Harris-Foulkes estimate   =     -34.68655910 Ry
     estimated scf accuracy    <       0.11688124 Ry

     iteration #  3     ecut=    40.00 Ry     beta= 0.70
     Davidson diagonalization with overlap
     ethr =  1.45E-03,  avg # of iterations =  2.0

     negative rho (up, down):  8.705E-04 0.000E+00

     total cpu time spent up to now is       23.7 secs

     total energy              =     -34.65432743 Ry
     Harris-Foulkes estimate   =     -34.65439003 Ry
     estimated scf accuracy    <       0.00053841 Ry

     iteration #  4     ecut=    40.00 Ry     beta= 0.70
     Davidson diagonalization with overlap
     ethr =  6.73E-06,  avg # of iterations =  2.0

     negative rho (up, down):  9.056E-04 0.000E+00

     total cpu time spent up to now is       24.6 secs

     total energy              =     -34.65460313 Ry
     Harris-Foulkes estimate   =     -34.65461800 Ry
     estimated scf accuracy    <       0.00004442 Ry

     iteration #  5     ecut=    40.00 Ry     beta= 0.70
     Davidson diagonalization with overlap
     ethr =  5.55E-07,  avg # of iterations =  1.0

     negative rho (up, down):  9.194E-04 0.000E+00

     total cpu time spent up to now is       25.5 secs

     total energy              =     -34.65460523 Ry
     Harris-Foulkes estimate   =     -34.65460631 Ry
     estimated scf accuracy    <       0.00000507 Ry

     iteration #  6     ecut=    40.00 Ry     beta= 0.70
     Davidson diagonalization with overlap
     ethr =  6.34E-08,  avg # of iterations =  2.0

     negative rho (up, down):  9.225E-04 0.000E+00

     total cpu time spent up to now is       26.3 secs

     total energy              =     -34.65460644 Ry
     Harris-Foulkes estimate   =     -34.65460680 Ry
     estimated scf accuracy    <       0.00000086 Ry

     iteration #  7     ecut=    40.00 Ry     beta= 0.70
     Davidson diagonalization with overlap
     ethr =  1.07E-08,  avg # of iterations =  2.0

     negative rho (up, down):  9.235E-04 0.000E+00

     total cpu time spent up to now is       27.2 secs

     total energy              =     -34.65460656 Ry
     Harris-Foulkes estimate   =     -34.65460656 Ry
     estimated scf accuracy    <       0.00000001 Ry

     iteration #  8     ecut=    40.00 Ry     beta= 0.70
     Davidson diagonalization with overlap
     ethr =  1.64E-10,  avg # of iterations =  2.0

     negative rho (up, down):  9.240E-04 0.000E+00

     total cpu time spent up to now is       28.1 secs

     End of self-consistent calculation

          k = 0.0000 0.0000 0.0000 (  7386 PWs)   bands (ev):

   -25.1216 -13.7301  -8.5026  -7.0151

     occupation numbers 
     1.0000   1.0000   1.0000   1.0000

     highest occupied level (ev):    -7.0151

!    total energy              =     -34.65460656 Ry
     Harris-Foulkes estimate   =     -34.65460656 Ry
     estimated scf accuracy    <          7.3E-10 Ry

     The total energy is the sum of the following terms:

     one-electron contribution =     -59.28064208 Ry
     hartree contribution      =      31.17819667 Ry
     xc contribution           =      -8.74708320 Ry
     ewald contribution        =       2.19492205 Ry

     convergence has been achieved in   8 iterations

     negative rho (up, down):  9.240E-04 0.000E+00

     Forces acting on atoms (cartesian axes, Ry/au):

     atom    1 type  1   force =     0.00000000    0.00000000   -0.13104812
     atom    2 type  2   force =    -0.04572682    0.00000000    0.06552406
     atom    3 type  2   force =     0.04572682    0.00000000    0.06552406
     The non-local contrib.  to forces
     atom    1 type  1   force =     0.00000000    0.00000000    1.99739646
     atom    2 type  2   force =     0.24034434    0.00000000   -0.12687022
     atom    3 type  2   force =    -0.24034434    0.00000000   -0.12687022
     The ionic contribution  to forces
     atom    1 type  1   force =     0.00000000   -0.00000000   -3.90364001
     atom    2 type  2   force =    -3.42847065    0.00000000    1.95182000
     atom    3 type  2   force =     3.42847065    0.00000000    1.95182000
     The local contribution  to forces
     atom    1 type  1   force =     0.00000000    0.00000000    1.78564378
     atom    2 type  2   force =     3.14240286    0.00000000   -1.75943174
     atom    3 type  2   force =    -3.14240286    0.00000000   -1.75943174
     The core correction contribution to forces
     atom    1 type  1   force =    -0.00000000    0.00000000   -0.01049244
     atom    2 type  2   force =     0.00000000    0.00000000    0.00000000
     atom    3 type  2   force =     0.00000000    0.00000000    0.00000000
     The Hubbard contrib.    to forces
     atom    1 type  1   force =     0.00000000    0.00000000    0.00000000
     atom    2 type  2   force =     0.00000000    0.00000000    0.00000000
     atom    3 type  2   force =     0.00000000    0.00000000    0.00000000
     The SCF correction term to forces
     atom    1 type  1   force =    -0.00000000    0.00000000    0.00004164
     atom    2 type  2   force =    -0.00000337    0.00000000    0.00000357
     atom    3 type  2   force =     0.00000337   -0.00000000    0.00000357

     Total force =     0.173038     Total SCF correction =     0.000042

     number of scf cycles    =   3
     number of bfgs steps    =   2

     energy   old            =     -34.5647199440 Ry
     energy   new            =     -34.6546065614 Ry

     CASE: energy  _new < energy  _old

     new trust radius        =       0.1181887869 bohr
     new conv_thr            =       0.0000000100 Ry


ATOMIC_POSITIONS (angstrom)
O        4.000000000   4.000000000   4.278944304
H        3.168430568   4.000000000   4.860527848
H        4.831569432   4.000000000   4.860527848



     Writing output data file h2o.save
     Check: negative starting charge=   -0.000131
     NEW-OLD atomic charge density approx. for the potential
     Check: negative starting charge=   -0.000135

     negative rho (up, down):  8.009E-04 0.000E+00

     total cpu time spent up to now is       29.3 secs

     Self-consistent Calculation

     iteration #  1     ecut=    40.00 Ry     beta= 0.70
     Davidson diagonalization with overlap
     ethr =  1.00E-06,  avg # of iterations =  5.0

     negative rho (up, down):  7.805E-04 0.000E+00

     total cpu time spent up to now is       30.3 secs

     total energy              =     -34.65381701 Ry
     Harris-Foulkes estimate   =     -34.66439345 Ry
     estimated scf accuracy    <       0.01481204 Ry

     iteration #  2     ecut=    40.00 Ry     beta= 0.70
     Davidson diagonalization with overlap
     ethr =  1.85E-04,  avg # of iterations =  2.0

     negative rho (up, down):  8.926E-04 0.000E+00

     total cpu time spent up to now is       31.2 secs

     total energy              =     -34.65682856 Ry
     Harris-Foulkes estimate   =     -34.66457805 Ry
     estimated scf accuracy    <       0.01625839 Ry

     iteration #  3     ecut=    40.00 Ry     beta= 0.70
     Davidson diagonalization with overlap
     ethr =  1.85E-04,  avg # of iterations =  2.0

     negative rho (up, down):  9.092E-04 0.000E+00

     total cpu time spent up to now is       32.0 secs

     total energy              =     -34.66009014 Ry
     Harris-Foulkes estimate   =     -34.66009491 Ry
     estimated scf accuracy    <       0.00006096 Ry

     iteration #  4     ecut=    40.00 Ry     beta= 0.70
     Davidson diagonalization with overlap
     ethr =  7.62E-07,  avg # of iterations =  2.0

     negative rho (up, down):  9.088E-04 0.000E+00

     total cpu time spent up to now is       32.9 secs

     total energy              =     -34.66011669 Ry
     Harris-Foulkes estimate   =     -34.66011916 Ry
     estimated scf accuracy    <       0.00000683 Ry

     iteration #  5     ecut=    40.00 Ry     beta= 0.70
     Davidson diagonalization with overlap
     ethr =  8.53E-08,  avg # of iterations =  2.0

     negative rho (up, down):  9.094E-04 0.000E+00

     total cpu time spent up to now is       33.8 secs

     total energy              =     -34.66011763 Ry
     Harris-Foulkes estimate   =     -34.66011761 Ry
     estimated scf accuracy    <       0.00000028 Ry

     iteration #  6     ecut=    40.00 Ry     beta= 0.70
     Davidson diagonalization with overlap
     ethr =  3.48E-09,  avg # of iterations =  2.0

     negative rho (up, down):  9.091E-04 0.000E+00

     total cpu time spent up to now is       34.8 secs

     total energy              =     -34.66011768 Ry
     Harris-Foulkes estimate   =     -34.66011769 Ry
     estimated scf accuracy    <       0.00000002 Ry

     iteration #  7     ecut=    40.00 Ry     beta= 0.70
     Davidson diagonalization with overlap
     ethr =  1.96E-10,  avg # of iterations =  2.0

     negative rho (up, down):  9.093E-04 0.000E+00

     total cpu time spent up to now is       35.7 secs

     End of self-consistent calculation

          k = 0.0000 0.0000 0.0000 (  7386 PWs)   bands (ev):

   -24.4570 -12.7035  -8.7345  -6.8767

     occupation numbers 
     1.0000   1.0000   1.0000   1.0000

     highest occupied level (ev):    -6.8767

!    total energy              =     -34.66011769 Ry
     Harris-Foulkes estimate   =     -34.66011769 Ry
     estimated scf accuracy    <          6.6E-10 Ry

     The total energy is the sum of the following terms:

     one-electron contribution =     -57.64171841 Ry
     hartree contribution      =      30.39078898 Ry
     xc contribution           =      -8.61566081 Ry
     ewald contribution        =       1.20647256 Ry

     convergence has been achieved in   7 iterations

     negative rho (up, down):  9.093E-04 0.000E+00

     Forces acting on atoms (cartesian axes, Ry/au):

     atom    1 type  1   force =     0.00000000    0.00000000    0.04257746
     atom    2 type  2   force =     0.06686726    0.00000000   -0.02128873
     atom    3 type  2   force =    -0.06686726    0.00000000   -0.02128873
     The non-local contrib.  to forces
     atom    1 type  1   force =     0.00000000    0.00000000    2.08482790
     atom    2 type  2   force =     0.18419429    0.00000000   -0.11460013
     atom    3 type  2   force =    -0.18419429    0.00000000   -0.11460013
     The ionic contribution  to forces
     atom    1 type  1   force =     0.00000000    0.00000000   -3.70957349
     atom    2 type  2   force =    -2.84496349   -0.00000000    1.85478674
     atom    3 type  2   force =     2.84496349    0.00000000    1.85478674
     The local contribution  to forces
     atom    1 type  1   force =    -0.00000000   -0.00000000    1.67957401
     atom    2 type  2   force =     2.72763440    0.00000000   -1.76147179
     atom    3 type  2   force =    -2.72763440    0.00000000   -1.76147179
     The core correction contribution to forces
     atom    1 type  1   force =    -0.00000000   -0.00000000   -0.01235209
     atom    2 type  2   force =     0.00000000    0.00000000    0.00000000
     atom    3 type  2   force =     0.00000000    0.00000000    0.00000000
     The Hubbard contrib.    to forces
     atom    1 type  1   force =     0.00000000    0.00000000    0.00000000
     atom    2 type  2   force =     0.00000000    0.00000000    0.00000000
     atom    3 type  2   force =     0.00000000    0.00000000    0.00000000
     The SCF correction term to forces
     atom    1 type  1   force =     0.00000000   -0.00000000    0.00010916
     atom    2 type  2   force =     0.00000207   -0.00000000    0.00000448
     atom    3 type  2   force =    -0.00000207   -0.00000000    0.00000448

     Total force =     0.107989     Total SCF correction =     0.000109

     number of scf cycles    =   4
     number of bfgs steps    =   3

     energy   old            =     -34.6546065614 Ry
     energy   new            =     -34.6601176865 Ry

     CASE: energy  _new < energy  _old

     new trust radius        =       0.0420921299 bohr
     new conv_thr            =       0.0000000055 Ry


ATOMIC_POSITIONS (angstrom)
O        4.000000000   4.000000000   4.289095083
H        3.190118819   4.000000000   4.855452458
H        4.809881181   4.000000000   4.855452458



     Writing output data file h2o.save
     Check: negative starting charge=   -0.000135
     NEW-OLD atomic charge density approx. for the potential
     Check: negative starting charge=   -0.000135

     negative rho (up, down):  9.984E-04 0.000E+00

     total cpu time spent up to now is       37.1 secs

     Self-consistent Calculation

     iteration #  1     ecut=    40.00 Ry     beta= 0.70
     Davidson diagonalization with overlap
     ethr =  1.00E-06,  avg # of iterations =  4.0

     negative rho (up, down):  9.590E-04 0.000E+00

     total cpu time spent up to now is       38.2 secs

     total energy              =     -34.66409994 Ry
     Harris-Foulkes estimate   =     -34.66507159 Ry
     estimated scf accuracy    <       0.00139699 Ry

     iteration #  2     ecut=    40.00 Ry     beta= 0.70
     Davidson diagonalization with overlap
     ethr =  1.75E-05,  avg # of iterations =  2.0

     negative rho (up, down):  9.405E-04 0.000E+00

     total cpu time spent up to now is       39.2 secs

     total energy              =     -34.66438115 Ry
     Harris-Foulkes estimate   =     -34.66508621 Ry
     estimated scf accuracy    <       0.00146166 Ry

     iteration #  3     ecut=    40.00 Ry     beta= 0.70
     Davidson diagonalization with overlap
     ethr =  1.75E-05,  avg # of iterations =  2.0

     negative rho (up, down):  9.266E-04 0.000E+00

     total cpu time spent up to now is       40.2 secs

     total energy              =     -34.66468285 Ry
     Harris-Foulkes estimate   =     -34.66468316 Ry
     estimated scf accuracy    <       0.00000729 Ry

     iteration #  4     ecut=    40.00 Ry     beta= 0.70
     Davidson diagonalization with overlap
     ethr =  9.11E-08,  avg # of iterations =  2.0

     negative rho (up, down):  9.284E-04 0.000E+00

     total cpu time spent up to now is       41.1 secs

     total energy              =     -34.66468525 Ry
     Harris-Foulkes estimate   =     -34.66468547 Ry
     estimated scf accuracy    <       0.00000058 Ry

     iteration #  5     ecut=    40.00 Ry     beta= 0.70
     Davidson diagonalization with overlap
     ethr =  7.31E-09,  avg # of iterations =  2.0

     negative rho (up, down):  9.286E-04 0.000E+00

     total cpu time spent up to now is       42.1 secs

     total energy              =     -34.66468535 Ry
     Harris-Foulkes estimate   =     -34.66468534 Ry
     estimated scf accuracy    <       0.00000002 Ry

     iteration #  6     ecut=    40.00 Ry     beta= 0.70
     Davidson diagonalization with overlap
     ethr =  2.16E-10,  avg # of iterations =  2.0

     negative rho (up, down):  9.289E-04 0.000E+00

     total cpu time spent up to now is       43.0 secs

     End of self-consistent calculation

          k = 0.0000 0.0000 0.0000 (  7386 PWs)   bands (ev):

   -24.7277 -12.9465  -8.7756  -6.9349

     occupation numbers 
     1.0000   1.0000   1.0000   1.0000

     highest occupied level (ev):    -6.9349

!    total energy              =     -34.66468535 Ry
     Harris-Foulkes estimate   =     -34.66468535 Ry
     estimated scf accuracy    <          1.1E-09 Ry

     The total energy is the sum of the following terms:

     one-electron contribution =     -58.22663007 Ry
     hartree contribution      =      30.66808864 Ry
     xc contribution           =      -8.66180910 Ry
     ewald contribution        =       1.55566518 Ry

     convergence has been achieved in   6 iterations

     negative rho (up, down):  9.289E-04 0.000E+00

     Forces acting on atoms (cartesian axes, Ry/au):

     atom    1 type  1   force =     0.00000000    0.00000000   -0.00450907
     atom    2 type  2   force =     0.02938276    0.00000000    0.00225454
     atom    3 type  2   force =    -0.02938276    0.00000000    0.00225454
     The non-local contrib.  to forces
     atom    1 type  1   force =     0.00000000    0.00000000    2.09576194
     atom    2 type  2   force =     0.19959630    0.00000000   -0.12492917
     atom    3 type  2   force =    -0.19959630    0.00000000   -0.12492917
     The ionic contribution  to forces
     atom    1 type  1   force =     0.00000000   -0.00000000   -3.91334437
     atom    2 type  2   force =    -3.00226556    0.00000000    1.95667219
     atom    3 type  2   force =     3.00226556    0.00000000    1.95667219
     The local contribution  to forces
     atom    1 type  1   force =     0.00000000   -0.00000000    1.82480718
     atom    2 type  2   force =     2.83204437    0.00000000   -1.82947630
     atom    3 type  2   force =    -2.83204437    0.00000000   -1.82947630
     The core correction contribution to forces
     atom    1 type  1   force =    -0.00000000   -0.00000000   -0.01180332
     atom    2 type  2   force =     0.00000000    0.00000000    0.00000000
     atom    3 type  2   force =     0.00000000    0.00000000    0.00000000
     The Hubbard contrib.    to forces
     atom    1 type  1   force =     0.00000000    0.00000000    0.00000000
     atom    2 type  2   force =     0.00000000    0.00000000    0.00000000
     atom    3 type  2   force =     0.00000000    0.00000000    0.00000000
     The SCF correction term to forces
     atom    1 type  1   force =    -0.00000000    0.00000000    0.00007938
     atom    2 type  2   force =     0.00000766   -0.00000000   -0.00000231
     atom    3 type  2   force =    -0.00000766    0.00000000   -0.00000231

     Total force =     0.041919     Total SCF correction =     0.000080

     number of scf cycles    =   5
     number of bfgs steps    =   4

     energy   old            =     -34.6601176865 Ry
     energy   new            =     -34.6646853477 Ry

     CASE: energy  _new < energy  _old

     new trust radius        =       0.0429664692 bohr
     new conv_thr            =       0.0000000029 Ry


ATOMIC_POSITIONS (angstrom)
O        4.000000000   4.000000000   4.282304956
H        3.212600792   4.000000000   4.858847522
H        4.787399208   4.000000000   4.858847522



     Writing output data file h2o.save
     Check: negative starting charge=   -0.000135
     NEW-OLD atomic charge density approx. for the potential
     Check: negative starting charge=   -0.000136

     negative rho (up, down):  1.001E-03 0.000E+00

     total cpu time spent up to now is       44.4 secs

     Self-consistent Calculation

     iteration #  1     ecut=    40.00 Ry     beta= 0.70
     Davidson diagonalization with overlap
     ethr =  1.00E-06,  avg # of iterations =  4.0

     negative rho (up, down):  9.524E-04 0.000E+00

     total cpu time spent up to now is       45.4 secs

     total energy              =     -34.66626318 Ry
     Harris-Foulkes estimate   =     -34.66637855 Ry
     estimated scf accuracy    <       0.00027220 Ry

     iteration #  2     ecut=    40.00 Ry     beta= 0.70
     Davidson diagonalization with overlap
     ethr =  3.40E-06,  avg # of iterations =  2.0

     negative rho (up, down):  9.438E-04 0.000E+00

     total cpu time spent up to now is       46.3 secs

     total energy              =     -34.66629767 Ry
     Harris-Foulkes estimate   =     -34.66639694 Ry
     estimated scf accuracy    <       0.00019642 Ry

     iteration #  3     ecut=    40.00 Ry     beta= 0.70
     Davidson diagonalization with overlap
     ethr =  2.46E-06,  avg # of iterations =  2.0

     negative rho (up, down):  9.338E-04 0.000E+00

     total cpu time spent up to now is       47.3 secs

     total energy              =     -34.66634533 Ry
     Harris-Foulkes estimate   =     -34.66634617 Ry
     estimated scf accuracy    <       0.00000760 Ry

     iteration #  4     ecut=    40.00 Ry     beta= 0.70
     Davidson diagonalization with overlap
     ethr =  9.50E-08,  avg # of iterations =  2.0

     negative rho (up, down):  9.348E-04 0.000E+00

     total cpu time spent up to now is       48.2 secs

     total energy              =     -34.66634636 Ry
     Harris-Foulkes estimate   =     -34.66634639 Ry
     estimated scf accuracy    <       0.00000011 Ry

     iteration #  5     ecut=    40.00 Ry     beta= 0.70
     Davidson diagonalization with overlap
     ethr =  1.31E-09,  avg # of iterations =  2.0

     negative rho (up, down):  9.348E-04 0.000E+00

     total cpu time spent up to now is       49.2 secs

     total energy              =     -34.66634640 Ry
     Harris-Foulkes estimate   =     -34.66634640 Ry
     estimated scf accuracy    <          9.8E-09 Ry

     iteration #  6     ecut=    40.00 Ry     beta= 0.70
     Davidson diagonalization with overlap
     ethr =  1.22E-10,  avg # of iterations =  2.0

     negative rho (up, down):  9.349E-04 0.000E+00

     total cpu time spent up to now is       50.1 secs

     End of self-consistent calculation

          k = 0.0000 0.0000 0.0000 (  7386 PWs)   bands (ev):

   -24.9025 -12.9513  -8.9174  -6.9753

     occupation numbers 
     1.0000   1.0000   1.0000   1.0000

     highest occupied level (ev):    -6.9753

!    total energy              =     -34.66634640 Ry
     Harris-Foulkes estimate   =     -34.66634640 Ry
     estimated scf accuracy    <          4.9E-10 Ry

     The total energy is the sum of the following terms:

     one-electron contribution =     -58.51954581 Ry
     hartree contribution      =      30.80285514 Ry
     xc contribution           =      -8.68469675 Ry
     ewald contribution        =       1.73504101 Ry

     convergence has been achieved in   6 iterations

     negative rho (up, down):  9.349E-04 0.000E+00

     Forces acting on atoms (cartesian axes, Ry/au):

     atom    1 type  1   force =     0.00000000    0.00000000   -0.02192088
     atom    2 type  2   force =     0.00358509    0.00000000    0.01096044
     atom    3 type  2   force =    -0.00358509    0.00000000    0.01096044
     The non-local contrib.  to forces
     atom    1 type  1   force =     0.00000000    0.00000000    2.13063997
     atom    2 type  2   force =     0.20352544    0.00000000   -0.13541017
     atom    3 type  2   force =    -0.20352544    0.00000000   -0.13541017
     The ionic contribution  to forces
     atom    1 type  1   force =     0.00000000    0.00000000   -4.13804275
     atom    2 type  2   force =    -3.04276407    0.00000000    2.06902138
     atom    3 type  2   force =     3.04276407   -0.00000000    2.06902138
     The local contribution  to forces
     atom    1 type  1   force =    -0.00000000    0.00000000    1.99703316
     atom    2 type  2   force =     2.84281960   -0.00000000   -1.92263902
     atom    3 type  2   force =    -2.84281960   -0.00000000   -1.92263902
     The core correction contribution to forces
     atom    1 type  1   force =    -0.00000000   -0.00000000   -0.01155687
     atom    2 type  2   force =     0.00000000    0.00000000    0.00000000
     atom    3 type  2   force =     0.00000000    0.00000000    0.00000000
     The Hubbard contrib.    to forces
     atom    1 type  1   force =     0.00000000    0.00000000    0.00000000
     atom    2 type  2   force =     0.00000000    0.00000000    0.00000000
     atom    3 type  2   force =     0.00000000    0.00000000    0.00000000
     The SCF correction term to forces
     atom    1 type  1   force =     0.00000000   -0.00000000    0.00001308
     atom    2 type  2   force =     0.00000411   -0.00000000   -0.00000428
     atom    3 type  2   force =    -0.00000411   -0.00000000   -0.00000428

     Total force =     0.027322     Total SCF correction =     0.000016

     number of scf cycles    =   6
     number of bfgs steps    =   5

     energy   old            =     -34.6646853477 Ry
     energy   new            =     -34.6663464022 Ry

     CASE: energy  _new < energy  _old

     new trust radius        =       0.0301753580 bohr
     new conv_thr            =       0.0000000017 Ry


ATOMIC_POSITIONS (angstrom)
O        4.000000000   4.000000000   4.268554378
H        3.227012974   4.000000000   4.865722811
H        4.772987026   4.000000000   4.865722811



     Writing output data file h2o.save
     Check: negative starting charge=   -0.000136
     NEW-OLD atomic charge density approx. for the potential
     Check: negative starting charge=   -0.000137

     negative rho (up, down):  9.601E-04 0.000E+00

     total cpu time spent up to now is       51.5 secs

     Self-consistent Calculation

     iteration #  1     ecut=    40.00 Ry     beta= 0.70
     Davidson diagonalization with overlap
     ethr =  1.00E-06,  avg # of iterations =  4.0

     negative rho (up, down):  9.352E-04 0.000E+00

     total cpu time spent up to now is       52.5 secs

     total energy              =     -34.66700048 Ry
     Harris-Foulkes estimate   =     -34.66701610 Ry
     estimated scf accuracy    <       0.00010114 Ry

     iteration #  2     ecut=    40.00 Ry     beta= 0.70
     Davidson diagonalization with overlap
     ethr =  1.26E-06,  avg # of iterations =  2.0

     negative rho (up, down):  9.397E-04 0.000E+00

     total cpu time spent up to now is       53.5 secs

     total energy              =     -34.66700822 Ry
     Harris-Foulkes estimate   =     -34.66702797 Ry
     estimated scf accuracy    <       0.00004075 Ry

     iteration #  3     ecut=    40.00 Ry     beta= 0.70
     Davidson diagonalization with overlap
     ethr =  5.09E-07,  avg # of iterations =  2.0

     negative rho (up, down):  9.367E-04 0.000E+00

     total cpu time spent up to now is       54.4 secs

     total energy              =     -34.66701885 Ry
     Harris-Foulkes estimate   =     -34.66702113 Ry
     estimated scf accuracy    <       0.00000717 Ry

     iteration #  4     ecut=    40.00 Ry     beta= 0.70
     Davidson diagonalization with overlap
     ethr =  8.96E-08,  avg # of iterations =  2.0

     negative rho (up, down):  9.365E-04 0.000E+00

     total cpu time spent up to now is       55.4 secs

     total energy              =     -34.66702007 Ry
     Harris-Foulkes estimate   =     -34.66702006 Ry
     estimated scf accuracy    <       0.00000004 Ry

     iteration #  5     ecut=    40.00 Ry     beta= 0.70
     Davidson diagonalization with overlap
     ethr =  4.45E-10,  avg # of iterations =  2.0

     negative rho (up, down):  9.369E-04 0.000E+00

     total cpu time spent up to now is       56.3 secs

     total energy              =     -34.66702008 Ry
     Harris-Foulkes estimate   =     -34.66702009 Ry
     estimated scf accuracy    <          4.1E-09 Ry

     iteration #  6     ecut=    40.00 Ry     beta= 0.70
     Davidson diagonalization with overlap
     ethr =  5.15E-11,  avg # of iterations =  2.0

     negative rho (up, down):  9.370E-04 0.000E+00

     total cpu time spent up to now is       57.2 secs

     End of self-consistent calculation

          k = 0.0000 0.0000 0.0000 (  7386 PWs)   bands (ev):

   -24.9446 -12.8058  -9.0618  -6.9874

     occupation numbers 
     1.0000   1.0000   1.0000   1.0000

     highest occupied level (ev):    -6.9874

!    total energy              =     -34.66702009 Ry
     Harris-Foulkes estimate   =     -34.66702008 Ry
     estimated scf accuracy    <          3.1E-10 Ry

     The total energy is the sum of the following terms:

     one-electron contribution =     -58.51486532 Ry
     hartree contribution      =      30.79610317 Ry
     xc contribution           =      -8.68370936 Ry
     ewald contribution        =       1.73545143 Ry

     convergence has been achieved in   6 iterations

     negative rho (up, down):  9.370E-04 0.000E+00

     Forces acting on atoms (cartesian axes, Ry/au):

     atom    1 type  1   force =     0.00000000    0.00000000   -0.01042593
     atom    2 type  2   force =    -0.00209305    0.00000000    0.00521297
     atom    3 type  2   force =     0.00209305    0.00000000    0.00521297
     The non-local contrib.  to forces
     atom    1 type  1   force =     0.00000000    0.00000000    2.16480874
     atom    2 type  2   force =     0.19846991    0.00000000   -0.14124665
     atom    3 type  2   force =    -0.19846991    0.00000000   -0.14124665
     The ionic contribution  to forces
     atom    1 type  1   force =     0.00000000   -0.00000000   -4.27432059
     atom    2 type  2   force =    -2.99223813    0.00000000    2.13716030
     atom    3 type  2   force =     2.99223813    0.00000000    2.13716030
     The local contribution  to forces
     atom    1 type  1   force =     0.00000000   -0.00000000    2.11068859
     atom    2 type  2   force =     2.79167900    0.00000000   -1.99070657
     atom    3 type  2   force =    -2.79167900    0.00000000   -1.99070657
     The core correction contribution to forces
     atom    1 type  1   force =    -0.00000000   -0.00000000   -0.01160782
     atom    2 type  2   force =     0.00000000    0.00000000    0.00000000
     atom    3 type  2   force =     0.00000000    0.00000000    0.00000000
     The Hubbard contrib.    to forces
     atom    1 type  1   force =     0.00000000    0.00000000    0.00000000
     atom    2 type  2   force =     0.00000000    0.00000000    0.00000000
     atom    3 type  2   force =     0.00000000    0.00000000    0.00000000
     The SCF correction term to forces
     atom    1 type  1   force =    -0.00000000    0.00000000    0.00000152
     atom    2 type  2   force =    -0.00000384    0.00000000    0.00000226
     atom    3 type  2   force =     0.00000384    0.00000000    0.00000226

     Total force =     0.013108     Total SCF correction =     0.000006

     number of scf cycles    =   7
     number of bfgs steps    =   6

     energy   old            =     -34.6663464022 Ry
     energy   new            =     -34.6670200852 Ry

     CASE: energy  _new < energy  _old

     new trust radius        =       0.0121106073 bohr
     new conv_thr            =       0.0000000007 Ry


ATOMIC_POSITIONS (angstrom)
O        4.000000000   4.000000000   4.262145720
H        3.230906166   4.000000000   4.868927140
H        4.769093834   4.000000000   4.868927140



     Writing output data file h2o.save
     Check: negative starting charge=   -0.000137
     NEW-OLD atomic charge density approx. for the potential
     Check: negative starting charge=   -0.000137

     negative rho (up, down):  9.387E-04 0.000E+00

     total cpu time spent up to now is       58.5 secs

     Self-consistent Calculation

     iteration #  1     ecut=    40.00 Ry     beta= 0.70
     Davidson diagonalization with overlap
     ethr =  1.00E-06,  avg # of iterations =  3.0

     negative rho (up, down):  9.341E-04 0.000E+00

     total cpu time spent up to now is       59.5 secs

     total energy              =     -34.66708175 Ry
     Harris-Foulkes estimate   =     -34.66710717 Ry
     estimated scf accuracy    <       0.00004462 Ry

     iteration #  2     ecut=    40.00 Ry     beta= 0.70
     Davidson diagonalization with overlap
     ethr =  5.58E-07,  avg # of iterations =  2.0

     negative rho (up, down):  9.378E-04 0.000E+00

     total cpu time spent up to now is       60.4 secs

     total energy              =     -34.66708983 Ry
     Harris-Foulkes estimate   =     -34.66710862 Ry
     estimated scf accuracy    <       0.00003880 Ry

     iteration #  3     ecut=    40.00 Ry     beta= 0.70
     Davidson diagonalization with overlap
     ethr =  4.85E-07,  avg # of iterations =  2.0

     negative rho (up, down):  9.375E-04 0.000E+00

     total cpu time spent up to now is       61.4 secs

     total energy              =     -34.66709821 Ry
     Harris-Foulkes estimate   =     -34.66709821 Ry
     estimated scf accuracy    <       0.00000056 Ry

     iteration #  4     ecut=    40.00 Ry     beta= 0.70
     Davidson diagonalization with overlap
     ethr =  6.94E-09,  avg # of iterations =  2.0

     negative rho (up, down):  9.371E-04 0.000E+00

     total cpu time spent up to now is       62.4 secs

     total energy              =     -34.66709831 Ry
     Harris-Foulkes estimate   =     -34.66709831 Ry
     estimated scf accuracy    <       0.00000002 Ry

     iteration #  5     ecut=    40.00 Ry     beta= 0.70
     Davidson diagonalization with overlap
     ethr =  2.94E-10,  avg # of iterations =  2.0

     negative rho (up, down):  9.371E-04 0.000E+00

     total cpu time spent up to now is       63.3 secs

     total energy              =     -34.66709831 Ry
     Harris-Foulkes estimate   =     -34.66709831 Ry
     estimated scf accuracy    <          2.8E-09 Ry

     iteration #  6     ecut=    40.00 Ry     beta= 0.70
     Davidson diagonalization with overlap
     ethr =  3.55E-11,  avg # of iterations =  2.0

     negative rho (up, down):  9.370E-04 0.000E+00

     total cpu time spent up to now is       64.2 secs

     End of self-consistent calculation

          k = 0.0000 0.0000 0.0000 (  7386 PWs)   bands (ev):

   -24.9339 -12.7242  -9.1154  -6.9865

     occupation numbers 
     1.0000   1.0000   1.0000   1.0000

     highest occupied level (ev):    -6.9865

!    total energy              =     -34.66709831 Ry
     Harris-Foulkes estimate   =     -34.66709831 Ry
     estimated scf accuracy    <          5.4E-11 Ry

     The total energy is the sum of the following terms:

     one-electron contribution =     -58.45591528 Ry
     hartree contribution      =      30.76623911 Ry
     xc contribution           =      -8.67871101 Ry
     ewald contribution        =       1.70128887 Ry

     convergence has been achieved in   6 iterations

     negative rho (up, down):  9.370E-04 0.000E+00

     Forces acting on atoms (cartesian axes, Ry/au):

     atom    1 type  1   force =     0.00000000    0.00000000   -0.00017371
     atom    2 type  2   force =    -0.00040052    0.00000000    0.00008686
     atom    3 type  2   force =     0.00040052    0.00000000    0.00008686
     The non-local contrib.  to forces
     atom    1 type  1   force =     0.00000000    0.00000000    2.17645340
     atom    2 type  2   force =     0.19494581    0.00000000   -0.14236431
     atom    3 type  2   force =    -0.19494581    0.00000000   -0.14236431
     The ionic contribution  to forces
     atom    1 type  1   force =     0.00000000   -0.00000000   -4.30505674
     atom    2 type  2   force =    -2.95665059    0.00000000    2.15252837
     atom    3 type  2   force =     2.95665059   -0.00000000    2.15252837
     The local contribution  to forces
     atom    1 type  1   force =    -0.00000000   -0.00000000    2.14014047
     atom    2 type  2   force =     2.76130500   -0.00000000   -2.01007605
     atom    3 type  2   force =    -2.76130500   -0.00000000   -2.01007605
     The core correction contribution to forces
     atom    1 type  1   force =    -0.00000000   -0.00000000   -0.01168281
     atom    2 type  2   force =     0.00000000    0.00000000    0.00000000
     atom    3 type  2   force =     0.00000000    0.00000000    0.00000000
     The Hubbard contrib.    to forces
     atom    1 type  1   force =     0.00000000    0.00000000    0.00000000
     atom    2 type  2   force =     0.00000000    0.00000000    0.00000000
     atom    3 type  2   force =     0.00000000    0.00000000    0.00000000
     The SCF correction term to forces
     atom    1 type  1   force =     0.00000000    0.00000000   -0.00002831
     atom    2 type  2   force =    -0.00000074    0.00000000   -0.00000142
     atom    3 type  2   force =     0.00000074    0.00000000   -0.00000142

     Total force =     0.000605     Total SCF correction =     0.000028

     bfgs converged in   8 scf cycles and   7 bfgs steps
     (criteria: energy <  1.0E-04 Ry, force <  1.0E-03 Ry/Bohr)

     End of BFGS Geometry Optimization

     Final energy   =     -34.6670983123 Ry
Begin final coordinates

ATOMIC_POSITIONS (angstrom)
O        4.000000000   4.000000000   4.262145720
H        3.230906166   4.000000000   4.868927140
H        4.769093834   4.000000000   4.868927140
End final coordinates



     Writing output data file h2o.save

     init_run     :      1.52s CPU      1.57s WALL (       1 calls)
     electrons    :     50.06s CPU     53.20s WALL (       8 calls)
     update_pot   :      3.24s CPU      3.24s WALL (       7 calls)
     forces       :      5.02s CPU      5.26s WALL (       8 calls)

     Called by init_run:
     wfcinit      :      0.05s CPU      0.05s WALL (       1 calls)
     wfcinit:atom :      0.00s CPU      0.00s WALL (       1 calls)
     wfcinit:wfcr :      0.04s CPU      0.04s WALL (       1 calls)
     potinit      :      0.37s CPU      0.38s WALL (       1 calls)

     Called by electrons:
     c_bands      :      5.89s CPU      5.91s WALL (      58 calls)
     sum_band     :     14.59s CPU     16.09s WALL (      58 calls)
     v_of_rho     :     19.82s CPU     20.00s WALL (      66 calls)
     v_h          :      1.02s CPU      1.02s WALL (      66 calls)
     v_xc         :     21.09s CPU     21.32s WALL (      74 calls)
     newd         :      9.37s CPU     10.90s WALL (      66 calls)
     mix_rho      :      1.98s CPU      2.05s WALL (      58 calls)

     Called by c_bands:
     init_us_2    :      0.42s CPU      0.42s WALL (     117 calls)
     regterg      :      5.39s CPU      5.41s WALL (      58 calls)

     Called by sum_band:
     sum_band:bec :      0.00s CPU      0.00s WALL (      58 calls)
     addusdens    :     10.42s CPU     11.92s WALL (      58 calls)

     Called by *egterg:
     h_psi        :      4.80s CPU      4.81s WALL (     200 calls)
     s_psi        :      0.14s CPU      0.15s WALL (     200 calls)
     g_psi        :      0.04s CPU      0.04s WALL (     141 calls)
     rdiaghg      :      0.01s CPU      0.01s WALL (     192 calls)
     regterg:over :      0.16s CPU      0.16s WALL (     141 calls)
     regterg:upda :      0.09s CPU      0.09s WALL (     141 calls)
     regterg:last :      0.05s CPU      0.05s WALL (      64 calls)

     Called by h_psi:
     h_psi:pot    :      4.78s CPU      4.79s WALL (     200 calls)
     h_psi:calbec :      0.20s CPU      0.21s WALL (     200 calls)
     vloc_psi     :      4.43s CPU      4.44s WALL (     200 calls)
     add_vuspsi   :      0.15s CPU      0.14s WALL (     200 calls)

     General routines
     calbec       :      0.30s CPU      0.30s WALL (     290 calls)
     fft          :     13.54s CPU     13.55s WALL (    1119 calls)
     ffts         :      1.35s CPU      1.35s WALL (     124 calls)
     fftw         :      4.53s CPU      4.54s WALL (     886 calls)
     interpolate  :      3.32s CPU      3.32s WALL (     124 calls)


     PWSCF        :  1m 1.33s CPU     1m 4.94s WALL


   This run was terminated on:  12:48:46  23May2019            

=------------------------------------------------------------------------------=
   JOB DONE.
=------------------------------------------------------------------------------=
