
     Program PWSCF v.6.2 starts on 28May2019 at 11:59: 0 

     This program is part of the open-source Quantum ESPRESSO suite
     for quantum simulation of materials; please cite
         "P. Giannozzi et al., J. Phys.:Condens. Matter 21 395502 (2009);
         "P. Giannozzi et al., J. Phys.:Condens. Matter 29 465901 (2017);
          URL http://www.quantum-espresso.org", 
     in publications or presentations arising from this work. More details at
     http://www.quantum-espresso.org/quote

     Serial version
     Waiting for input...
     Reading input from standard input
Warning: card &IONS ignored
Warning: card / ignored

     Current dimensions of program PWSCF are:
     Max number of different atomic species (ntypx) = 10
     Max number of k-points (npk) =  40000
     Max angular momentum in pseudopotentials (lmaxx) =  3

     gamma-point specific algorithms are used

     G-vector sticks info
     --------------------
     sticks:   dense  smooth     PW     G-vecs:    dense   smooth      PW
     Sum        3641    2917    725               164853   118265   14771



     bravais-lattice index     =            1
     lattice parameter (alat)  =      15.1178  a.u.
     unit-cell volume          =    3455.1465 (a.u.)^3
     number of atoms/cell      =            3
     number of atomic types    =            2
     number of electrons       =         8.00
     number of Kohn-Sham states=            8
     kinetic-energy cutoff     =      40.0000  Ry
     charge density cutoff     =     200.0000  Ry
     convergence threshold     =      1.0E-08
     mixing beta               =       0.7000
     number of iterations used =            8  plain     mixing
     Exchange-correlation      =  SLA  PW   PBX  PBC ( 1  4  3  4 0 0)

     celldm(1)=  15.117808  celldm(2)=   0.000000  celldm(3)=   0.000000
     celldm(4)=   0.000000  celldm(5)=   0.000000  celldm(6)=   0.000000

     crystal axes: (cart. coord. in units of alat)
               a(1) = (   1.000000   0.000000   0.000000 )  
               a(2) = (   0.000000   1.000000   0.000000 )  
               a(3) = (   0.000000   0.000000   1.000000 )  

     reciprocal axes: (cart. coord. in units 2 pi/alat)
               b(1) = (  1.000000  0.000000  0.000000 )  
               b(2) = (  0.000000  1.000000  0.000000 )  
               b(3) = (  0.000000  0.000000  1.000000 )  


     PseudoPot. # 1 for O  read from file:
     ./o_pbe_v1.2.uspp.F.UPF
     MD5 check sum: 734c27235a0248c51dbae37a1fbe46ec
     Pseudo is Ultrasoft + core correction, Zval =  6.0
     Generated by new atomic code, or converted to UPF format
     Using radial grid of  737 points,  5 beta functions with: 
                l(1) =   0
                l(2) =   0
                l(3) =   1
                l(4) =   1
                l(5) =   2
     Q(r) pseudized with  8 coefficients,  rinner =    0.900   0.900   0.900
                                                       0.900   0.900

     PseudoPot. # 2 for H  read from file:
     ./h_pbe_v1.4.uspp.F.UPF
     MD5 check sum: 761ae9a214b05c3daf00ab9f6b793d6f
     Pseudo is Ultrasoft, Zval =  1.0
     Generated by new atomic code, or converted to UPF format
     Using radial grid of  615 points,  2 beta functions with: 
                l(1) =   0
                l(2) =   0
     Q(r) pseudized with  8 coefficients,  rinner =    0.700

     atomic species   valence    mass     pseudopotential
        O              6.00    16.00000     O ( 1.00)
        H              1.00     1.00000     H ( 1.00)

      4 Sym. Ops. (no inversion) found


                                    s                        frac. trans.

      isym =  1     identity                                     

 cryst.   s( 1) = (     1          0          0      )
                  (     0          1          0      )
                  (     0          0          1      )

 cart.    s( 1) = (  1.0000000  0.0000000  0.0000000 )
                  (  0.0000000  1.0000000  0.0000000 )
                  (  0.0000000  0.0000000  1.0000000 )


      isym =  2     180 deg rotation - cart. axis [0,0,1]        

 cryst.   s( 2) = (    -1          0          0      )
                  (     0         -1          0      )
                  (     0          0          1      )

 cart.    s( 2) = ( -1.0000000  0.0000000  0.0000000 )
                  (  0.0000000 -1.0000000  0.0000000 )
                  (  0.0000000  0.0000000  1.0000000 )


      isym =  3     inv. 180 deg rotation - cart. axis [0,1,0]   

 cryst.   s( 3) = (     1          0          0      )
                  (     0         -1          0      )
                  (     0          0          1      )

 cart.    s( 3) = (  1.0000000  0.0000000  0.0000000 )
                  (  0.0000000 -1.0000000  0.0000000 )
                  (  0.0000000  0.0000000  1.0000000 )


      isym =  4     inv. 180 deg rotation - cart. axis [1,0,0]   

 cryst.   s( 4) = (    -1          0          0      )
                  (     0          1          0      )
                  (     0          0          1      )

 cart.    s( 4) = ( -1.0000000  0.0000000  0.0000000 )
                  (  0.0000000  1.0000000  0.0000000 )
                  (  0.0000000  0.0000000  1.0000000 )


     point group C_2v (mm2) 
     there are  4 classes
     the character table:

       E     C2    s_v   s_v' 
A_1    1.00  1.00  1.00  1.00
A_2    1.00  1.00 -1.00 -1.00
B_1    1.00 -1.00  1.00 -1.00
B_2    1.00 -1.00 -1.00  1.00

     the symmetry operations in each class and the name of the first element:

     E        1
          identity                                               
     C2       2
          180 deg rotation - cart. axis [0,0,1]                  
     s_v      4
          inv. 180 deg rotation - cart. axis [1,0,0]             
     s_v'     3
          inv. 180 deg rotation - cart. axis [0,1,0]             

   Cartesian axes

     site n.     atom                  positions (alat units)
         1           O   tau(   1) = (   0.5000000   0.5000000   0.5327682  )
         2           H   tau(   2) = (   0.4038633   0.5000000   0.6086159  )
         3           H   tau(   3) = (   0.5961368   0.5000000   0.6086159  )

   Crystallographic axes

     site n.     atom                  positions (cryst. coord.)
         1           O   tau(   1) = (  0.5000000  0.5000000  0.5327682  )
         2           H   tau(   2) = (  0.4038633  0.5000000  0.6086159  )
         3           H   tau(   3) = (  0.5961368  0.5000000  0.6086159  )

     number of k points=     1
                       cart. coord. in units 2pi/alat
        k(    1) = (   0.0000000   0.0000000   0.0000000), wk =   2.0000000

                       cryst. coord.
        k(    1) = (   0.0000000   0.0000000   0.0000000), wk =   2.0000000

     Dense  grid:    82427 G-vectors     FFT dimensions: (  72,  72,  72)

     Smooth grid:    59133 G-vectors     FFT dimensions: (  64,  64,  64)

     Dynamical RAM for                 wfc:       0.90 MB

     Dynamical RAM for     wfc (w. buffer):       0.90 MB

     Dynamical RAM for           str. fact:       2.52 MB

     Dynamical RAM for           local pot:       0.00 MB

     Dynamical RAM for          nlocal pot:       1.91 MB

     Dynamical RAM for                qrad:       3.90 MB

     Dynamical RAM for          rho,v,vnew:      12.32 MB

     Dynamical RAM for               rhoin:       4.11 MB

     Dynamical RAM for            rho*nmix:      20.12 MB

     Dynamical RAM for           G-vectors:       5.17 MB

     Dynamical RAM for          h,s,v(r/c):       0.02 MB

     Dynamical RAM for          <psi|beta>:       0.00 MB

     Dynamical RAM for                 psi:       3.60 MB

     Dynamical RAM for                hpsi:       3.60 MB

     Dynamical RAM for                spsi:       3.60 MB

     Dynamical RAM for      wfcinit/wfcrot:       1.80 MB

     Dynamical RAM for           addusdens:     135.84 MB

     Estimated static dynamical RAM per process >      68.95 MB

     Estimated max dynamical RAM per process >     204.79 MB

     Initial potential from superposition of free atoms
     Check: negative starting charge=   -0.000137

     starting charge    7.99998, renormalised to    8.00000

     negative rho (up, down):  1.374E-04 0.000E+00
     Starting wfc are    6 randomized atomic wfcs +    2 random wfc

     total cpu time spent up to now is        1.9 secs

     Self-consistent Calculation

     iteration #  1     ecut=    40.00 Ry     beta= 0.70
     Davidson diagonalization with overlap
     ethr =  1.00E-02,  avg # of iterations =  6.0

     negative rho (up, down):  5.844E-04 0.000E+00

     total cpu time spent up to now is        3.0 secs

     total energy              =     -34.47389729 Ry
     Harris-Foulkes estimate   =     -34.81072266 Ry
     estimated scf accuracy    <       0.45663071 Ry

     iteration #  2     ecut=    40.00 Ry     beta= 0.70
     Davidson diagonalization with overlap
     ethr =  5.71E-03,  avg # of iterations =  2.0

     negative rho (up, down):  6.691E-04 0.000E+00

     total cpu time spent up to now is        3.9 secs

     total energy              =     -34.55553860 Ry
     Harris-Foulkes estimate   =     -34.80590673 Ry
     estimated scf accuracy    <       0.53551948 Ry

     iteration #  3     ecut=    40.00 Ry     beta= 0.70
     Davidson diagonalization with overlap
     ethr =  5.71E-03,  avg # of iterations =  2.0

     negative rho (up, down):  8.881E-04 0.000E+00

     total cpu time spent up to now is        4.9 secs

     total energy              =     -34.66560256 Ry
     Harris-Foulkes estimate   =     -34.66833038 Ry
     estimated scf accuracy    <       0.00583401 Ry

     iteration #  4     ecut=    40.00 Ry     beta= 0.70
     Davidson diagonalization with overlap
     ethr =  7.29E-05,  avg # of iterations =  6.0

     negative rho (up, down):  8.858E-04 0.000E+00

     total cpu time spent up to now is        5.9 secs

     total energy              =     -34.66708805 Ry
     Harris-Foulkes estimate   =     -34.66733664 Ry
     estimated scf accuracy    <       0.00061413 Ry

     iteration #  5     ecut=    40.00 Ry     beta= 0.70
     Davidson diagonalization with overlap
     ethr =  7.68E-06,  avg # of iterations =  7.0

     negative rho (up, down):  9.147E-04 0.000E+00

     total cpu time spent up to now is        6.9 secs

     total energy              =     -34.66709308 Ry
     Harris-Foulkes estimate   =     -34.66712146 Ry
     estimated scf accuracy    <       0.00006933 Ry

     iteration #  6     ecut=    40.00 Ry     beta= 0.70
     Davidson diagonalization with overlap
     ethr =  8.67E-07,  avg # of iterations =  3.0

     negative rho (up, down):  9.351E-04 0.000E+00

     total cpu time spent up to now is        7.8 secs

     total energy              =     -34.66709795 Ry
     Harris-Foulkes estimate   =     -34.66709897 Ry
     estimated scf accuracy    <       0.00000296 Ry

     iteration #  7     ecut=    40.00 Ry     beta= 0.70
     Davidson diagonalization with overlap
     ethr =  3.70E-08,  avg # of iterations =  2.0

     negative rho (up, down):  9.356E-04 0.000E+00

     total cpu time spent up to now is        8.8 secs

     total energy              =     -34.66709830 Ry
     Harris-Foulkes estimate   =     -34.66709834 Ry
     estimated scf accuracy    <       0.00000007 Ry

     iteration #  8     ecut=    40.00 Ry     beta= 0.70
     Davidson diagonalization with overlap
     ethr =  8.47E-10,  avg # of iterations =  2.0

     negative rho (up, down):  9.370E-04 0.000E+00

     total cpu time spent up to now is        9.7 secs

     End of self-consistent calculation

          k = 0.0000 0.0000 0.0000 (  7386 PWs)   bands (ev):

   -24.9337 -12.7240  -9.1153  -6.9864  -1.0866   0.9677   1.2164   1.6587

     occupation numbers 
     1.0000   1.0000   1.0000   1.0000   0.0000   0.0000   0.0000   0.0000

     highest occupied, lowest unoccupied level (ev):    -6.9864   -1.0866

!    total energy              =     -34.66709831 Ry
     Harris-Foulkes estimate   =     -34.66709831 Ry
     estimated scf accuracy    <          3.5E-09 Ry

     The total energy is the sum of the following terms:

     one-electron contribution =     -58.45580454 Ry
     hartree contribution      =      30.76610598 Ry
     xc contribution           =      -8.67868744 Ry
     ewald contribution        =       1.70128768 Ry

     charge density inside the Wigner-Seitz cell:    8.00000000

     reference position (x0):         7.55890453    7.55890453    8.34095072 bohr

     Dipole moments (with respect to x0):
     Elect  -0.0000  -0.0000   0.7221 au (Ha),  -0.0000  -0.0000   1.8353 Debye
     Ionic   0.0000   0.0000   0.0000 au (Ha),   0.0000   0.0000   0.0000 Debye
     Total  -0.0000  -0.0000   0.7221 au (Ha),  -0.0000  -0.0000   1.8353 Debye

     Electrons quadrupole moment        -20.30032938 a.u. (Ha)
          Ions quadrupole moment          6.19682048 a.u. (Ha)
         Total quadrupole moment        -14.10350890 a.u. (Ha)

     *********    MAKOV-PAYNE CORRECTION    *********

     Makov-Payne correction with Madelung constant =   2.8373

     Makov-Payne correction     0.00000000 Ry =  0.000 eV (1st order, 1/a0)
                                0.00063208 Ry =  0.009 eV (2nd order, 1/a0^3)
                                0.00063208 Ry =  0.009 eV (total)

!    Total+Makov-Payne energy  =     -34.66646623 Ry
     Corrected vacuum level    =       0.23273606 eV

     convergence has been achieved in   8 iterations

     Writing output data file h2o.save

     init_run     :      1.73s CPU      1.78s WALL (       1 calls)
     electrons    :      7.42s CPU      7.82s WALL (       1 calls)

     Called by init_run:
     wfcinit      :      0.06s CPU      0.06s WALL (       1 calls)
     wfcinit:atom :      0.00s CPU      0.00s WALL (       1 calls)
     wfcinit:wfcr :      0.05s CPU      0.05s WALL (       1 calls)
     potinit      :      0.37s CPU      0.38s WALL (       1 calls)

     Called by electrons:
     c_bands      :      1.45s CPU      1.45s WALL (       8 calls)
     sum_band     :      2.02s CPU      2.21s WALL (       8 calls)
     v_of_rho     :      2.58s CPU      2.62s WALL (       9 calls)
     v_h          :      0.13s CPU      0.13s WALL (       9 calls)
     v_xc         :      2.45s CPU      2.49s WALL (       9 calls)
     newd         :      1.24s CPU      1.43s WALL (       9 calls)
     mix_rho      :      0.27s CPU      0.28s WALL (       8 calls)

     Called by c_bands:
     init_us_2    :      0.06s CPU      0.06s WALL (      17 calls)
     regterg      :      1.38s CPU      1.38s WALL (       8 calls)

     Called by sum_band:
     sum_band:bec :      0.00s CPU      0.00s WALL (       8 calls)
     addusdens    :      1.39s CPU      1.58s WALL (       8 calls)

     Called by *egterg:
     h_psi        :      1.21s CPU      1.21s WALL (      39 calls)
     s_psi        :      0.03s CPU      0.04s WALL (      39 calls)
     g_psi        :      0.01s CPU      0.01s WALL (      30 calls)
     rdiaghg      :      0.00s CPU      0.01s WALL (      38 calls)
     regterg:over :      0.07s CPU      0.07s WALL (      30 calls)
     regterg:upda :      0.04s CPU      0.04s WALL (      30 calls)
     regterg:last :      0.02s CPU      0.02s WALL (       9 calls)

     Called by h_psi:
     h_psi:pot    :      1.20s CPU      1.20s WALL (      39 calls)
     h_psi:calbec :      0.05s CPU      0.05s WALL (      39 calls)
     vloc_psi     :      1.11s CPU      1.11s WALL (      39 calls)
     add_vuspsi   :      0.04s CPU      0.04s WALL (      39 calls)

     General routines
     calbec       :      0.07s CPU      0.07s WALL (      47 calls)
     fft          :      1.58s CPU      1.58s WALL (     140 calls)
     ffts         :      0.18s CPU      0.18s WALL (      17 calls)
     fftw         :      1.15s CPU      1.16s WALL (     236 calls)
     interpolate  :      0.42s CPU      0.42s WALL (      17 calls)


     PWSCF        :     9.27s CPU         9.73s WALL


   This run was terminated on:  11:59: 9  28May2019            

=------------------------------------------------------------------------------=
   JOB DONE.
=------------------------------------------------------------------------------=
