
     Program POST-PROC v.6.2 starts on 28May2019 at 12:14:13 

     This program is part of the open-source Quantum ESPRESSO suite
     for quantum simulation of materials; please cite
         "P. Giannozzi et al., J. Phys.:Condens. Matter 21 395502 (2009);
         "P. Giannozzi et al., J. Phys.:Condens. Matter 29 465901 (2017);
          URL http://www.quantum-espresso.org", 
     in publications or presentations arising from this work. More details at
     http://www.quantum-espresso.org/quote

     Serial version

     Reading data from directory:
     ./h2o.save/

     IMPORTANT: XC functional enforced from input :
     Exchange-correlation      = PBE ( 1  4  3  4 0 0)
     Any further DFT definition will be discarded
     Please, verify this is what you really want


     G-vector sticks info
     --------------------
     sticks:   dense  smooth     PW     G-vecs:    dense   smooth      PW
     Sum        3641    2917    725               164853   118265   14771


     negative rho (up, down):  9.370E-04 0.000E+00

     Calling punch_plot, plot_num =   7

     Plotting k_point =   1  band =  2
     Writing data to file  1.wave
     Reading data from file  1.wave

     Writing data to be plotted to file wave.2.xsf
     Plot Type: 3D                     Output format: XCrySDen     

     POST-PROC    :     2.76s CPU         2.87s WALL


   This run was terminated on:  12:14:16  28May2019            

=------------------------------------------------------------------------------=
   JOB DONE.
=------------------------------------------------------------------------------=
